********************************************************************************
*                       GENERAL UTILITY LATTICE PROGRAM                        *
*                                 Julian Gale                                  *
*                      Nanochemistry Research Institute                        *
*                           Department of Chemistry                            *
*                    Curtin University, Western Australia                      *
********************************************************************************
* Version = 4.4.0 * Last modified = 31st March 2015                            *
********************************************************************************
*  optimise     - perform optimisation run                                     *
*  conv         - constant volume calculation                                  *
*  property     - calculate properties for final geometry                      *
*  phonon       - calculate phonons for final geometry                         *
*  potential    - calculate electrostatic site potentials                      *
*  molmec       - molecule option activated, Coulomb subtract 1-2/1-3 terms    *
*  fix_molecule - fix atoms of molecule as at the start of the run             *
*  compare      - compare initial and final structures                         *
********************************************************************************

  Job Started  at 15:05.23 17th May        2016                               

  Number of CPUs =     1


  Total number of configurations input =   1

********************************************************************************
*  Input for Configuration =   1                                               *
********************************************************************************

  Formula = Ti180O394H36C64Zn8                                          

  Number of irreducible atoms/shells =     682


  Total number atoms/shells =     682

  Dimensionality = 3               :  Bulk   



  Cartesian lattice vectors (Angstroms) :

       17.724000    0.000000    0.000000
        0.000000   19.461000    0.000000
        0.000000    0.000000   85.817500

  Cell parameters (Angstroms/Degrees):

  a =      17.7240    alpha =  90.0000
  b =      19.4610    beta  =  90.0000
  c =      85.8175    gamma =  90.0000

  Initial cell volume =       29600.752570 Angs**3

  Temperature of configuration =  0.000     K 

  Pressure of configuration =         0.000 GPa 

  Fractional coordinates of asymmetric unit :

--------------------------------------------------------------------------------
   No.  Atomic       x           y          z         Charge      Occupancy
        Label      (Frac)      (Frac)     (Frac)        (e)         (Frac)  
--------------------------------------------------------------------------------
      1 Ti    c    0.320000    0.733333    0.454117     2.43600    1.000000    
      2 Ti    c    0.147550 *  0.399399 *  0.456923 *   2.43600    1.000000    
      3 Ti    c    0.979403 *  0.399248 *  0.457202 *   2.43600    1.000000    
      4 Ti    c    0.811757 *  0.395975 *  0.457724 *   2.43600    1.000000    
      5 Ti    c    0.651765 *  0.395660 *  0.457540 *   2.43600    1.000000    
      6 Ti    c    0.484301 *  0.399196 *  0.457191 *   2.43600    1.000000    
      7 Ti    c    0.315972 *  0.399384 *  0.456888 *   2.43600    1.000000    
      8 Ti    c    0.148396 *  0.065560 *  0.456118 *   2.43600    1.000000    
      9 Ti    c    0.982124 *  0.065478 *  0.456843 *   2.43600    1.000000    
     10 Ti    c    0.814569 *  0.069343 *  0.457121 *   2.43600    1.000000    
     11 Ti    c    0.649292 *  0.069209 *  0.457099 *   2.43600    1.000000    
     12 Ti    c    0.481507 *  0.065680 *  0.456834 *   2.43600    1.000000    
     13 Ti    c    0.315014 *  0.065559 *  0.456701 *   2.43600    1.000000    
     14 Ti    c    0.143493 *  0.733492 *  0.453356 *   2.43600    1.000000    
     15 Ti    c    0.980786 *  0.733654 *  0.457004 *   2.43600    1.000000    
     16 Ti    c    0.815048 *  0.732791 *  0.456942 *   2.43600    1.000000    
     17 Ti    c    0.649021 *  0.732933 *  0.456884 *   2.43600    1.000000    
     18 Ti    c    0.483148 *  0.733046 *  0.456967 *   2.43600    1.000000    
     19 Ti    c    0.065807 *  0.232406 *  0.453739 *   2.43600    1.000000    
     20 Ti    c    0.900372 *  0.229382 *  0.453275 *   2.43600    1.000000    
     21 Ti    c    0.731814 *  0.246376 *  0.454706 *   2.43600    1.000000    
     22 Ti    c    0.899265 *  0.899453 *  0.453937 *   2.43600    1.000000    
     23 Ti    c    0.565042 *  0.899378 *  0.453890 *   2.43600    1.000000    
     24 Ti    c    0.397698 *  0.899864 *  0.453840 *   2.43600    1.000000    
     25 Ti    c    0.898157 *  0.566204 *  0.453714 *   2.43600    1.000000    
     26 Ti    c    0.565557 *  0.565934 *  0.453650 *   2.43600    1.000000    
     27 Ti    c    0.398970 *  0.566914 *  0.453915 *   2.43600    1.000000    
     28 Ti    c    0.231931 *  0.231784 *  0.453771 *   2.43600    1.000000    
     29 Ti    c    0.563151 *  0.229407 *  0.453211 *   2.43600    1.000000    
     30 Ti    c    0.397860 *  0.232929 *  0.453757 *   2.43600    1.000000    
     31 Ti    c    0.231028 *  0.900659 *  0.455746 *   2.43600    1.000000    
     32 Ti    c    0.066009 *  0.900175 *  0.456166 *   2.43600    1.000000    
     33 Ti    c    0.732187 *  0.901358 *  0.454083 *   2.43600    1.000000    
     34 Ti    c    0.231923 *  0.563941 *  0.453444 *   2.43600    1.000000    
     35 Ti    c    0.064759 *  0.567619 *  0.453902 *   2.43600    1.000000    
     36 Ti    c    0.731814 *  0.565819 *  0.455709 *   2.43600    1.000000    
     37 Ti    c    0.315354 *  0.566369 *  0.417359 *   2.43600    1.000000    
     38 Ti    c    0.148737 *  0.233116 *  0.417470 *   2.43600    1.000000    
     39 Ti    c    0.982512 *  0.232817 *  0.417195 *   2.43600    1.000000    
     40 Ti    c    0.815283 *  0.234109 *  0.418197 *   2.43600    1.000000    
     41 Ti    c    0.648398 *  0.234146 *  0.418193 *   2.43600    1.000000    
     42 Ti    c    0.481128 *  0.232790 *  0.417158 *   2.43600    1.000000    
     43 Ti    c    0.314998 *  0.233175 *  0.417426 *   2.43600    1.000000    
     44 Ti    c    0.148415 *  0.899955 *  0.419495 *   2.43600    1.000000    
     45 Ti    c    0.981991 *  0.900106 *  0.418297 *   2.43600    1.000000    
     46 Ti    c    0.815121 *  0.900423 *  0.417703 *   2.43600    1.000000    
     47 Ti    c    0.648614 *  0.900418 *  0.417715 *   2.43600    1.000000    
     48 Ti    c    0.482139 *  0.900127 *  0.417481 *   2.43600    1.000000    
     49 Ti    c    0.314982 *  0.899883 *  0.418148 *   2.43600    1.000000    
     50 Ti    c    0.148401 *  0.566465 *  0.417405 *   2.43600    1.000000    
     51 Ti    c    0.981892 *  0.566791 *  0.417378 *   2.43600    1.000000    
     52 Ti    c    0.814825 *  0.566760 *  0.418430 *   2.43600    1.000000    
     53 Ti    c    0.648876 *  0.566738 *  0.418404 *   2.43600    1.000000    
     54 Ti    c    0.481779 *  0.566750 *  0.417354 *   2.43600    1.000000    
     55 Ti    c    0.400166 *  0.733274 *  0.417827 *   2.43600    1.000000    
     56 Ti    c    0.231850 *  0.399866 *  0.418655 *   2.43600    1.000000    
     57 Ti    c    0.064995 *  0.399597 *  0.418785 *   2.43600    1.000000    
     58 Ti    c    0.898559 *  0.400580 *  0.419092 *   2.43600    1.000000    
     59 Ti    c    0.731887 *  0.400369 *  0.419299 *   2.43600    1.000000    
     60 Ti    c    0.565123 *  0.400558 *  0.419051 *   2.43600    1.000000    
     61 Ti    c    0.398731 *  0.399574 *  0.418761 *   2.43600    1.000000    
     62 Ti    c    0.231982 *  0.066515 *  0.418504 *   2.43600    1.000000    
     63 Ti    c    0.065279 *  0.066198 *  0.418535 *   2.43600    1.000000    
     64 Ti    c    0.898497 *  0.067616 *  0.418736 *   2.43600    1.000000    
     65 Ti    c    0.731837 *  0.067326 *  0.418847 *   2.43600    1.000000    
     66 Ti    c    0.565170 *  0.067658 *  0.418692 *   2.43600    1.000000    
     67 Ti    c    0.398307 *  0.066265 *  0.418557 *   2.43600    1.000000    
     68 Ti    c    0.232052 *  0.733286 *  0.417984 *   2.43600    1.000000    
     69 Ti    c    0.063342 *  0.733450 *  0.417742 *   2.43600    1.000000    
     70 Ti    c    0.897961 *  0.733442 *  0.418692 *   2.43600    1.000000    
     71 Ti    c    0.731862 *  0.733342 *  0.418760 *   2.43600    1.000000    
     72 Ti    c    0.565725 *  0.733435 *  0.418638 *   2.43600    1.000000    
     73 Ti    c    0.315165 *  0.733451 *  0.380905 *   2.43600    1.000000    
     74 Ti    c    0.148499 *  0.400050 *  0.381417 *   2.43600    1.000000    
     75 Ti    c    0.981751 *  0.400163 *  0.381651 *   2.43600    1.000000    
     76 Ti    c    0.815077 *  0.400191 *  0.381805 *   2.43600    1.000000    
     77 Ti    c    0.648634 *  0.400191 *  0.381792 *   2.43600    1.000000    
     78 Ti    c    0.481950 *  0.400161 *  0.381615 *   2.43600    1.000000    
     79 Ti    c    0.315198 *  0.400051 *  0.381408 *   2.43600    1.000000    
     80 Ti    c    0.148538 *  0.066583 *  0.381364 *   2.43600    1.000000    
     81 Ti    c    0.981820 *  0.066779 *  0.381547 *   2.43600    1.000000    
     82 Ti    c    0.815104 *  0.066844 *  0.381553 *   2.43600    1.000000    
     83 Ti    c    0.648589 *  0.066877 *  0.381500 *   2.43600    1.000000    
     84 Ti    c    0.481897 *  0.066799 *  0.381470 *   2.43600    1.000000    
     85 Ti    c    0.315150 *  0.066582 *  0.381372 *   2.43600    1.000000    
     86 Ti    c    0.148533 *  0.733457 *  0.380873 *   2.43600    1.000000    
     87 Ti    c    0.981500 *  0.733470 *  0.381258 *   2.43600    1.000000    
     88 Ti    c    0.815032 *  0.733508 *  0.381484 *   2.43600    1.000000    
     89 Ti    c    0.648651 *  0.733469 *  0.381431 *   2.43600    1.000000    
     90 Ti    c    0.482186 *  0.733454 *  0.381196 *   2.43600    1.000000    
     91 Ti    c    0.398666 *  0.566828 *  0.381254 *   2.43600    1.000000    
     92 Ti    c    0.231833 *  0.233288 *  0.381274 *   2.43600    1.000000    
     93 Ti    c    0.065233 *  0.233469 *  0.381259 *   2.43600    1.000000    
     94 Ti    c    0.898164 *  0.233604 *  0.381477 *   2.43600    1.000000    
     95 Ti    c    0.731853 *  0.233626 *  0.381756 *   2.43600    1.000000    
     96 Ti    c    0.565544 *  0.233621 *  0.381452 *   2.43600    1.000000    
     97 Ti    c    0.398457 *  0.233501 *  0.381232 *   2.43600    1.000000    
     98 Ti    c    0.231385 *  0.899975 *  0.382019 *   2.43600    1.000000    
     99 Ti    c    0.065550 *  0.900093 *  0.382097 *   2.43600    1.000000    
    100 Ti    c    0.898828 *  0.900155 *  0.381683 *   2.43600    1.000000    
    101 Ti    c    0.731944 *  0.900237 *  0.381494 *   2.43600    1.000000    
    102 Ti    c    0.565269 *  0.900151 *  0.381419 *   2.43600    1.000000    
    103 Ti    c    0.398192 *  0.900098 *  0.381536 *   2.43600    1.000000    
    104 Ti    c    0.231835 *  0.566723 *  0.381220 *   2.43600    1.000000    
    105 Ti    c    0.065034 *  0.566853 *  0.381277 *   2.43600    1.000000    
    106 Ti    c    0.898035 *  0.566720 *  0.381599 *   2.43600    1.000000    
    107 Ti    c    0.731861 *  0.566778 *  0.381865 *   2.43600    1.000000    
    108 Ti    c    0.565668 *  0.566708 *  0.381571 *   2.43600    1.000000    
    109 Ti    c    0.315228 *  0.566789 *  0.345095 *   2.43600    1.000000    
    110 Ti    c    0.148505 *  0.233463 *  0.345169 *   2.43600    1.000000    
    111 Ti    c    0.981750 *  0.233476 *  0.345260 *   2.43600    1.000000    
    112 Ti    c    0.815087 *  0.233466 *  0.345458 *   2.43600    1.000000    
    113 Ti    c    0.648612 *  0.233461 *  0.345443 *   2.43600    1.000000    
    114 Ti    c    0.481944 *  0.233469 *  0.345231 *   2.43600    1.000000    
    115 Ti    c    0.315192 *  0.233456 *  0.345152 *   2.43600    1.000000    
    116 Ti    c    0.148487 *  0.900110 *  0.345701 *   2.43600    1.000000    
    117 Ti    c    0.982029 *  0.900125 *  0.345598 *   2.43600    1.000000    
    118 Ti    c    0.815312 *  0.900152 *  0.345411 *   2.43600    1.000000    
    119 Ti    c    0.648548 *  0.900152 *  0.345307 *   2.43600    1.000000    
    120 Ti    c    0.481758 *  0.900125 *  0.345299 *   2.43600    1.000000    
    121 Ti    c    0.314985 *  0.900112 *  0.345486 *   2.43600    1.000000    
    122 Ti    c    0.148473 *  0.566782 *  0.345112 *   2.43600    1.000000    
    123 Ti    c    0.981691 *  0.566792 *  0.345280 *   2.43600    1.000000    
    124 Ti    c    0.815071 *  0.566801 *  0.345519 *   2.43600    1.000000    
    125 Ti    c    0.648626 *  0.566806 *  0.345503 *   2.43600    1.000000    
    126 Ti    c    0.482001 *  0.566799 *  0.345253 *   2.43600    1.000000    
    127 Ti    c    0.398670 *  0.733473 *  0.343909 *   2.43600    1.000000    
    128 Ti    c    0.231846 *  0.400140 *  0.344127 *   2.43600    1.000000    
    129 Ti    c    0.065061 *  0.400138 *  0.344210 *   2.43600    1.000000    
    130 Ti    c    0.898405 *  0.400147 *  0.344366 *   2.43600    1.000000    
    131 Ti    c    0.731853 *  0.400140 *  0.344438 *   2.43600    1.000000    
    132 Ti    c    0.565300 *  0.400147 *  0.344348 *   2.43600    1.000000    
    133 Ti    c    0.398630 *  0.400138 *  0.344192 *   2.43600    1.000000    
    134 Ti    c    0.231829 *  0.066773 *  0.344143 *   2.43600    1.000000    
    135 Ti    c    0.065124 *  0.066788 *  0.344203 *   2.43600    1.000000    
    136 Ti    c    0.898517 *  0.066783 *  0.344256 *   2.43600    1.000000    
    137 Ti    c    0.731882 *  0.066785 *  0.344243 *   2.43600    1.000000    
    138 Ti    c    0.565210 *  0.066792 *  0.344195 *   2.43600    1.000000    
    139 Ti    c    0.398536 *  0.066768 *  0.344146 *   2.43600    1.000000    
    140 Ti    c    0.231836 *  0.733481 *  0.343840 *   2.43600    1.000000    
    141 Ti    c    0.064984 *  0.733452 *  0.343955 *   2.43600    1.000000    
    142 Ti    c    0.898378 *  0.733493 *  0.344121 *   2.43600    1.000000    
    143 Ti    c    0.731878 *  0.733494 *  0.344180 *   2.43600    1.000000    
    144 Ti    c    0.565340 *  0.733484 *  0.344068 *   2.43600    1.000000    
    145 Ti    c    0.398652 *  0.566825 *  0.308812 *   2.43600    1.000000    
    146 Ti    c    0.315191 *  0.733541 *  0.305719 *   2.43600    1.000000    
    147 Ti    c    0.231835 *  0.233443 *  0.308805 *   2.43600    1.000000    
    148 Ti    c    0.148442 *  0.400142 *  0.305950 *   2.43600    1.000000    
    149 Ti    c    0.065089 *  0.233437 *  0.308862 *   2.43600    1.000000    
    150 Ti    c    0.981720 *  0.400142 *  0.306071 *   2.43600    1.000000    
    151 Ti    c    0.898394 *  0.233452 *  0.308999 *   2.43600    1.000000    
    152 Ti    c    0.815123 *  0.400145 *  0.306179 *   2.43600    1.000000    
    153 Ti    c    0.731862 *  0.233456 *  0.309076 *   2.43600    1.000000    
    154 Ti    c    0.648591 *  0.400145 *  0.306172 *   2.43600    1.000000    
    155 Ti    c    0.565315 *  0.233447 *  0.308972 *   2.43600    1.000000    
    156 Ti    c    0.481979 *  0.400142 *  0.306055 *   2.43600    1.000000    
    157 Ti    c    0.398595 *  0.233451 *  0.308837 *   2.43600    1.000000    
    158 Ti    c    0.315234 *  0.400142 *  0.305943 *   2.43600    1.000000    
    159 Ti    c    0.231719 *  0.900136 *  0.309150 *   2.43600    1.000000    
    160 Ti    c    0.148466 *  0.066720 *  0.305988 *   2.43600    1.000000    
    161 Ti    c    0.065224 *  0.900134 *  0.309213 *   2.43600    1.000000    
    162 Ti    c    0.981820 *  0.066733 *  0.306042 *   2.43600    1.000000    
    163 Ti    c    0.898648 *  0.900137 *  0.309111 *   2.43600    1.000000    
    164 Ti    c    0.815203 *  0.066749 *  0.306048 *   2.43600    1.000000    
    165 Ti    c    0.731945 *  0.900144 *  0.308991 *   2.43600    1.000000    
    166 Ti    c    0.648568 *  0.066759 *  0.306014 *   2.43600    1.000000    
    167 Ti    c    0.565181 *  0.900137 *  0.308935 *   2.43600    1.000000    
    168 Ti    c    0.481880 *  0.066746 *  0.305976 *   2.43600    1.000000    
    169 Ti    c    0.398389 *  0.900137 *  0.308993 *   2.43600    1.000000    
    170 Ti    c    0.315159 *  0.066724 *  0.305960 *   2.43600    1.000000    
    171 Ti    c    0.231835 *  0.566825 *  0.308744 *   2.43600    1.000000    
    172 Ti    c    0.148437 *  0.733546 *  0.305742 *   2.43600    1.000000    
    173 Ti    c    0.065032 *  0.566837 *  0.308835 *   2.43600    1.000000    
    174 Ti    c    0.981758 *  0.733534 *  0.305875 *   2.43600    1.000000    
    175 Ti    c    0.898351 *  0.566821 *  0.309027 *   2.43600    1.000000    
    176 Ti    c    0.815169 *  0.733519 *  0.305967 *   2.43600    1.000000    
    177 Ti    c    0.731862 *  0.566817 *  0.309123 *   2.43600    1.000000    
    178 Ti    c    0.648597 *  0.733508 *  0.305936 *   2.43600    1.000000    
    179 Ti    c    0.565356 *  0.566826 *  0.309001 *   2.43600    1.000000    
    180 Ti    c    0.481940 *  0.733520 *  0.305818 *   2.43600    1.000000    
    181 O2    c    0.394655 *  0.730237 *  0.467884 *  -1.21800    1.000000    
    182 O2    c    0.231865 *  0.403315 *  0.468511 *  -1.21800    1.000000    
    183 O2    c    0.064286 *  0.399699 *  0.468735 *  -1.21800    1.000000    
    184 O3    c    0.895831 *  0.399040 *  0.469342 *  -0.33800    1.000000    
    185 H22   c    0.895831 *  0.399040 *  0.479342 *   0.12000    1.000000    
    186 O2    c    0.731243 *  0.328245 *  0.466419 *  -1.21800    1.000000    
    187 O2    c    0.568003 *  0.398960 *  0.469305 *  -1.21800    1.000000    
    188 O2    c    0.399392 *  0.399703 *  0.468700 *  -1.21800    1.000000    
    189 O2    c    0.231128 *  0.066925 *  0.468236 *  -1.21800    1.000000    
    190 O2    c    0.066375 *  0.066541 *  0.468336 *  -1.21800    1.000000    
    191 O2    c    0.898704 *  0.070878 *  0.468635 *  -1.21800    1.000000    
    192 O2    c    0.731789 *  0.062093 *  0.468947 *  -1.21800    1.000000    
    193 O2    c    0.564858 *  0.068675 *  0.468588 *  -1.21800    1.000000    
    194 O2    c    0.398125 *  0.064866 *  0.468609 *  -1.21800    1.000000    
    195 O3    c    0.231120 *  0.734863 *  0.468296 *  -0.33800    1.000000    
    196 H22   c    0.226743 *  0.750849 *  0.478936 *   0.12000    1.000000    
    197 O2    c    0.070520 *  0.728860 *  0.467475 *  -1.21800    1.000000    
    198 O2    c    0.898595 *  0.733319 *  0.468894 *  -1.21800    1.000000    
    199 O2    c    0.731822 *  0.735992 *  0.468666 *  -1.21800    1.000000    
    200 O2    c    0.565173 *  0.735382 *  0.468817 *  -1.21800    1.000000    
    201 O2    c    0.148986 *  0.172399 *  0.455525 *  -1.21800    1.000000    
    202 O2    c    0.983804 *  0.171173 *  0.455693 *  -1.21800    1.000000    
    203 O2    c    0.812905 *  0.175867 *  0.456606 *  -1.21800    1.000000    
    204 O2    c    0.649863 *  0.175519 *  0.456647 *  -1.21800    1.000000    
    205 O2    c    0.479579 *  0.170762 *  0.455722 *  -1.21800    1.000000    
    206 O2    c    0.315512 *  0.172354 *  0.455875 *  -1.21800    1.000000    
    207 O2    c    0.151021 *  0.831203 *  0.453448 *  -1.21800    1.000000    
    208 O2    c    0.980574 *  0.836847 *  0.455831 *  -1.21800    1.000000    
    209 O2    c    0.815196 *  0.839835 *  0.456003 *  -1.21800    1.000000    
    210 O2    c    0.648288 *  0.839956 *  0.455890 *  -1.21800    1.000000    
    211 O2    c    0.480382 *  0.838417 *  0.456157 *  -1.21800    1.000000    
    212 O2    c    0.316838 *  0.833786 *  0.455320 *  -1.21800    1.000000    
    213 O2    c    0.983171 *  0.506789 *  0.456342 *  -1.21800    1.000000    
    214 O2    c    0.480702 *  0.506749 *  0.456375 *  -1.21800    1.000000    
    215 O2    c    0.315968 *  0.507143 *  0.455903 *  -1.21800    1.000000    
    216 O2    c    0.147794 *  0.507377 *  0.455955 *  -1.21800    1.000000    
    217 O2    c    0.820078 *  0.504110 *  0.454607 *  -1.21800    1.000000    
    218 O2    c    0.643414 *  0.503968 *  0.454520 *  -1.21800    1.000000    
    219 O2    c    0.312505 *  0.629508 *  0.455876 *  -1.21800    1.000000    
    220 O2    c    0.149612 *  0.293720 *  0.456005 *  -1.21800    1.000000    
    221 O2    c    0.983903 *  0.292602 *  0.456072 *  -1.21800    1.000000    
    222 O2    c    0.829676 *  0.296055 *  0.452077 *  -1.21800    1.000000    
    223 O2    c    0.633798 *  0.295853 *  0.451893 *  -1.21800    1.000000    
    224 O2    c    0.479930 *  0.292492 *  0.456103 *  -1.21800    1.000000    
    225 O2    c    0.314217 *  0.293837 *  0.455963 *  -1.21800    1.000000    
    226 O2    c    0.979103 *  0.962027 *  0.455661 *  -1.21800    1.000000    
    227 O2    c    0.482044 *  0.960033 *  0.455907 *  -1.21800    1.000000    
    228 O2    c    0.317671 *  0.960700 *  0.455448 *  -1.21800    1.000000    
    229 O2    c    0.152223 *  0.629567 *  0.455483 *  -1.21800    1.000000    
    230 O2    c    0.982390 *  0.627915 *  0.456004 *  -1.21800    1.000000    
    231 O2    c    0.817659 *  0.629252 *  0.455221 *  -1.21800    1.000000    
    232 O2    c    0.645150 *  0.629579 *  0.455198 *  -1.21800    1.000000    
    233 O2    c    0.481038 *  0.628152 *  0.456000 *  -1.21800    1.000000    
    234 O2    c    0.149151 *  0.963883 *  0.453498 *  -1.21800    1.000000    
    235 O2    c    0.816164 *  0.961226 *  0.455938 *  -1.21800    1.000000    
    236 O2    c    0.647229 *  0.960978 *  0.455847 *  -1.21800    1.000000    
    237 O2    c    0.401710 *  0.732007 *  0.440097 *  -1.21800    1.000000    
    238 O2    c    0.231945 *  0.401148 *  0.440920 *  -1.21800    1.000000    
    239 O2    c    0.066315 *  0.399851 *  0.440973 *  -1.21800    1.000000    
    240 O2    c    0.903036 *  0.402786 *  0.441002 *  -1.21800    1.000000    
    241 O2    c    0.731840 *  0.399270 *  0.441748 *  -1.21800    1.000000    
    242 O2    c    0.560562 *  0.402715 *  0.440984 *  -1.21800    1.000000    
    243 O2    c    0.397624 *  0.399822 *  0.440972 *  -1.21800    1.000000    
    244 O2    c    0.233655 *  0.069326 *  0.440532 *  -1.21800    1.000000    
    245 O2    c    0.064286 *  0.068861 *  0.440545 *  -1.21800    1.000000    
    246 O2    c    0.897475 *  0.069430 *  0.440925 *  -1.21800    1.000000    
    247 O2    c    0.731491 *  0.067198 *  0.441087 *  -1.21800    1.000000    
    248 O2    c    0.565109 *  0.068676 *  0.440945 *  -1.21800    1.000000    
    249 O2    c    0.398919 *  0.066124 *  0.440761 *  -1.21800    1.000000    
    250 O2    c    0.233409 *  0.729682 *  0.441618 *  -1.21800    1.000000    
    251 O2    c    0.060905 *  0.729666 *  0.439794 *  -1.21800    1.000000    
    252 O2    c    0.898490 *  0.733969 *  0.440897 *  -1.21800    1.000000    
    253 O2    c    0.731558 *  0.734805 *  0.440876 *  -1.21800    1.000000    
    254 O2    c    0.564121 *  0.734763 *  0.440905 *  -1.21800    1.000000    
    255 O2    c    0.397545 *  0.567883 *  0.432127 *  -1.21800    1.000000    
    256 O2    c    0.232163 *  0.233297 *  0.431994 *  -1.21800    1.000000    
    257 O2    c    0.066041 *  0.233462 *  0.431912 *  -1.21800    1.000000    
    258 O2    c    0.902313 *  0.227859 *  0.431553 *  -1.21800    1.000000    
    259 O2    c    0.731744 *  0.234678 *  0.432419 *  -1.21800    1.000000    
    260 O2    c    0.561084 *  0.227587 *  0.431529 *  -1.21800    1.000000    
    261 O2    c    0.397723 *  0.233243 *  0.431944 *  -1.21800    1.000000    
    262 O2    c    0.235191 *  0.898669 *  0.432879 *  -1.21800    1.000000    
    263 O2    c    0.062676 *  0.898679 *  0.433060 *  -1.21800    1.000000    
    264 O2    c    0.897159 *  0.899452 *  0.432183 *  -1.21800    1.000000    
    265 O2    c    0.731532 *  0.900650 *  0.432208 *  -1.21800    1.000000    
    266 O2    c    0.564618 *  0.899383 *  0.432118 *  -1.21800    1.000000    
    267 O2    c    0.400099 *  0.898795 *  0.432117 *  -1.21800    1.000000    
    268 O2    c    0.232178 *  0.566371 *  0.431884 *  -1.21800    1.000000    
    269 O2    c    0.066233 *  0.567777 *  0.432098 *  -1.21800    1.000000    
    270 O2    c    0.901526 *  0.567938 *  0.431971 *  -1.21800    1.000000    
    271 O2    c    0.731676 *  0.567626 *  0.432811 *  -1.21800    1.000000    
    272 O2    c    0.561981 *  0.567944 *  0.431951 *  -1.21800    1.000000    
    273 O2    c    0.315022 *  0.668331 *  0.418220 *  -1.21800    1.000000    
    274 O2    c    0.315130 *  0.465731 *  0.418125 *  -1.21800    1.000000    
    275 O2    c    0.148987 *  0.334548 *  0.418150 *  -1.21800    1.000000    
    276 O2    c    0.148923 *  0.132197 *  0.417846 *  -1.21800    1.000000    
    277 O2    c    0.982182 *  0.334319 *  0.418079 *  -1.21800    1.000000    
    278 O2    c    0.983025 *  0.131702 *  0.417480 *  -1.21800    1.000000    
    279 O2    c    0.815504 *  0.335251 *  0.418287 *  -1.21800    1.000000    
    280 O2    c    0.814736 *  0.132334 *  0.418095 *  -1.21800    1.000000    
    281 O2    c    0.648033 *  0.335260 *  0.418289 *  -1.21800    1.000000    
    282 O2    c    0.648625 *  0.132241 *  0.418144 *  -1.21800    1.000000    
    283 O2    c    0.481508 *  0.334229 *  0.418087 *  -1.21800    1.000000    
    284 O2    c    0.480393 *  0.131457 *  0.417641 *  -1.21800    1.000000    
    285 O2    c    0.314933 *  0.334547 *  0.418148 *  -1.21800    1.000000    
    286 O2    c    0.315406 *  0.132228 *  0.417812 *  -1.21800    1.000000    
    287 O2    c    0.148944 *  0.001142 *  0.418384 *  -1.21800    1.000000    
    288 O2    c    0.148978 *  0.796761 *  0.418827 *  -1.21800    1.000000    
    289 O2    c    0.981518 *  0.001303 *  0.418246 *  -1.21800    1.000000    
    290 O2    c    0.981279 *  0.798659 *  0.417722 *  -1.21800    1.000000    
    291 O2    c    0.815073 *  0.001653 *  0.418189 *  -1.21800    1.000000    
    292 O2    c    0.814819 *  0.799035 *  0.418012 *  -1.21800    1.000000    
    293 O2    c    0.648079 *  0.001513 *  0.418234 *  -1.21800    1.000000    
    294 O2    c    0.648378 *  0.799159 *  0.418062 *  -1.21800    1.000000    
    295 O2    c    0.482056 *  0.001027 *  0.418137 *  -1.21800    1.000000    
    296 O2    c    0.482192 *  0.798849 *  0.417658 *  -1.21800    1.000000    
    297 O2    c    0.315402 *  0.000889 *  0.418066 *  -1.21800    1.000000    
    298 O2    c    0.315344 *  0.797071 *  0.418465 *  -1.21800    1.000000    
    299 O2    c    0.149282 *  0.668412 *  0.418278 *  -1.21800    1.000000    
    300 O2    c    0.148808 *  0.465765 *  0.418133 *  -1.21800    1.000000    
    301 O2    c    0.981501 *  0.667755 *  0.417355 *  -1.21800    1.000000    
    302 O2    c    0.983256 *  0.465980 *  0.417959 *  -1.21800    1.000000    
    303 O2    c    0.815131 *  0.668266 *  0.418192 *  -1.21800    1.000000    
    304 O2    c    0.815003 *  0.465755 *  0.418398 *  -1.21800    1.000000    
    305 O2    c    0.648221 *  0.668365 *  0.418234 *  -1.21800    1.000000    
    306 O2    c    0.648518 *  0.465738 *  0.418397 *  -1.21800    1.000000    
    307 O2    c    0.481928 *  0.667976 *  0.417583 *  -1.21800    1.000000    
    308 O2    c    0.480442 *  0.466001 *  0.417967 *  -1.21800    1.000000    
    309 O2    c    0.398093 *  0.567489 *  0.403372 *  -1.21800    1.000000    
    310 O2    c    0.231885 *  0.233629 *  0.403348 *  -1.21800    1.000000    
    311 O2    c    0.066032 *  0.233764 *  0.403278 *  -1.21800    1.000000    
    312 O2    c    0.897887 *  0.234035 *  0.403405 *  -1.21800    1.000000    
    313 O2    c    0.731748 *  0.233883 *  0.403806 *  -1.21800    1.000000    
    314 O2    c    0.565705 *  0.233847 *  0.403397 *  -1.21800    1.000000    
    315 O2    c    0.397792 *  0.233745 *  0.403267 *  -1.21800    1.000000    
    316 O2    c    0.230781 *  0.898440 *  0.404236 *  -1.21800    1.000000    
    317 O2    c    0.066675 *  0.899302 *  0.404306 *  -1.21800    1.000000    
    318 O2    c    0.899057 *  0.900412 *  0.403698 *  -1.21800    1.000000    
    319 O2    c    0.731760 *  0.900445 *  0.403558 *  -1.21800    1.000000    
    320 O2    c    0.565426 *  0.900349 *  0.403477 *  -1.21800    1.000000    
    321 O2    c    0.397595 *  0.899330 *  0.403635 *  -1.21800    1.000000    
    322 O2    c    0.231882 *  0.567530 *  0.403362 *  -1.21800    1.000000    
    323 O2    c    0.065796 *  0.567474 *  0.403378 *  -1.21800    1.000000    
    324 O2    c    0.897482 *  0.566366 *  0.403594 *  -1.21800    1.000000    
    325 O2    c    0.731771 *  0.567064 *  0.403981 *  -1.21800    1.000000    
    326 O2    c    0.566080 *  0.566613 *  0.403586 *  -1.21800    1.000000    
    327 O2    c    0.397795 *  0.733242 *  0.395414 *  -1.21800    1.000000    
    328 O2    c    0.231917 *  0.400278 *  0.395799 *  -1.21800    1.000000    
    329 O2    c    0.065815 *  0.399938 *  0.395858 *  -1.21800    1.000000    
    330 O2    c    0.898867 *  0.400452 *  0.396022 *  -1.21800    1.000000    
    331 O2    c    0.731786 *  0.400300 *  0.396125 *  -1.21800    1.000000    
    332 O2    c    0.564742 *  0.400445 *  0.396009 *  -1.21800    1.000000    
    333 O2    c    0.397990 *  0.399925 *  0.395846 *  -1.21800    1.000000    
    334 O2    c    0.231927 *  0.066539 *  0.395712 *  -1.21800    1.000000    
    335 O2    c    0.065746 *  0.066099 *  0.395727 *  -1.21800    1.000000    
    336 O2    c    0.898416 *  0.066789 *  0.395822 *  -1.21800    1.000000    
    337 O2    c    0.731641 *  0.066577 *  0.395860 *  -1.21800    1.000000    
    338 O2    c    0.565125 *  0.066748 *  0.395801 *  -1.21800    1.000000    
    339 O2    c    0.398243 *  0.066095 *  0.395700 *  -1.21800    1.000000    
    340 O2    c    0.231897 *  0.733163 *  0.395484 *  -1.21800    1.000000    
    341 O2    c    0.066221 *  0.733289 *  0.395407 *  -1.21800    1.000000    
    342 O2    c    0.898542 *  0.733493 *  0.395699 *  -1.21800    1.000000    
    343 O2    c    0.731635 *  0.733442 *  0.395822 *  -1.21800    1.000000    
    344 O2    c    0.564975 *  0.733534 *  0.395687 *  -1.21800    1.000000    
    345 O2    c    0.315164 *  0.502166 *  0.381276 *  -1.21800    1.000000    
    346 O2    c    0.315112 *  0.631683 *  0.381085 *  -1.21800    1.000000    
    347 O2    c    0.148635 *  0.168563 *  0.381140 *  -1.21800    1.000000    
    348 O2    c    0.148767 *  0.298310 *  0.381118 *  -1.21800    1.000000    
    349 O2    c    0.981936 *  0.168779 *  0.381315 *  -1.21800    1.000000    
    350 O2    c    0.982042 *  0.298286 *  0.381298 *  -1.21800    1.000000    
    351 O2    c    0.815010 *  0.168594 *  0.381261 *  -1.21800    1.000000    
    352 O2    c    0.815071 *  0.298487 *  0.381319 *  -1.21800    1.000000    
    353 O2    c    0.648574 *  0.168583 *  0.381245 *  -1.21800    1.000000    
    354 O2    c    0.648537 *  0.298483 *  0.381322 *  -1.21800    1.000000    
    355 O2    c    0.481742 *  0.168743 *  0.381298 *  -1.21800    1.000000    
    356 O2    c    0.481669 *  0.298268 *  0.381293 *  -1.21800    1.000000    
    357 O2    c    0.315184 *  0.168548 *  0.381143 *  -1.21800    1.000000    
    358 O2    c    0.315002 *  0.298296 *  0.381126 *  -1.21800    1.000000    
    359 O2    c    0.148635 *  0.834776 *  0.381338 *  -1.21800    1.000000    
    360 O2    c    0.148720 *  0.964790 *  0.381457 *  -1.21800    1.000000    
    361 O2    c    0.982328 *  0.835191 *  0.381468 *  -1.21800    1.000000    
    362 O2    c    0.982356 *  0.964773 *  0.381563 *  -1.21800    1.000000    
    363 O2    c    0.815268 *  0.835404 *  0.381379 *  -1.21800    1.000000    
    364 O2    c    0.815318 *  0.964869 *  0.381374 *  -1.21800    1.000000    
    365 O2    c    0.648482 *  0.835342 *  0.381264 *  -1.21800    1.000000    
    366 O2    c    0.648433 *  0.964919 *  0.381257 *  -1.21800    1.000000    
    367 O2    c    0.481609 *  0.835268 *  0.381298 *  -1.21800    1.000000    
    368 O2    c    0.481589 *  0.964685 *  0.381393 *  -1.21800    1.000000    
    369 O2    c    0.314841 *  0.834991 *  0.381395 *  -1.21800    1.000000    
    370 O2    c    0.314747 *  0.964549 *  0.381507 *  -1.21800    1.000000    
    371 O2    c    0.148615 *  0.502147 *  0.381263 *  -1.21800    1.000000    
    372 O2    c    0.148714 *  0.631671 *  0.381073 *  -1.21800    1.000000    
    373 O2    c    0.982041 *  0.502204 *  0.381403 *  -1.21800    1.000000    
    374 O2    c    0.981829 *  0.631581 *  0.381257 *  -1.21800    1.000000    
    375 O2    c    0.814979 *  0.501977 *  0.381393 *  -1.21800    1.000000    
    376 O2    c    0.815015 *  0.631786 *  0.381306 *  -1.21800    1.000000    
    377 O2    c    0.648628 *  0.501990 *  0.381403 *  -1.21800    1.000000    
    378 O2    c    0.648570 *  0.631793 *  0.381295 *  -1.21800    1.000000    
    379 O2    c    0.481676 *  0.502219 *  0.381398 *  -1.21800    1.000000    
    380 O2    c    0.481853 *  0.631623 *  0.381246 *  -1.21800    1.000000    
    381 O2    c    0.398787 *  0.733452 *  0.366583 *  -1.21800    1.000000    
    382 O2    c    0.231881 *  0.400466 *  0.366829 *  -1.21800    1.000000    
    383 O2    c    0.065059 *  0.400361 *  0.366908 *  -1.21800    1.000000    
    384 O2    c    0.898524 *  0.400260 *  0.367050 *  -1.21800    1.000000    
    385 O2    c    0.731823 *  0.400213 *  0.367098 *  -1.21800    1.000000    
    386 O2    c    0.565167 *  0.400265 *  0.367036 *  -1.21800    1.000000    
    387 O2    c    0.398648 *  0.400363 *  0.366897 *  -1.21800    1.000000    
    388 O2    c    0.231934 *  0.066720 *  0.366800 *  -1.21800    1.000000    
    389 O2    c    0.065069 *  0.066931 *  0.366851 *  -1.21800    1.000000    
    390 O2    c    0.898634 *  0.066643 *  0.366919 *  -1.21800    1.000000    
    391 O2    c    0.731878 *  0.066498 *  0.366899 *  -1.21800    1.000000    
    392 O2    c    0.565040 *  0.066643 *  0.366873 *  -1.21800    1.000000    
    393 O2    c    0.398550 *  0.066574 *  0.366823 *  -1.21800    1.000000    
    394 O2    c    0.231953 *  0.733221 *  0.366515 *  -1.21800    1.000000    
    395 O2    c    0.064813 *  0.733099 *  0.366594 *  -1.21800    1.000000    
    396 O2    c    0.898322 *  0.733619 *  0.366783 *  -1.21800    1.000000    
    397 O2    c    0.731873 *  0.733804 *  0.366847 *  -1.21800    1.000000    
    398 O2    c    0.565333 *  0.733610 *  0.366745 *  -1.21800    1.000000    
    399 O2    c    0.398327 *  0.566900 *  0.359101 *  -1.21800    1.000000    
    400 O2    c    0.231903 *  0.233381 *  0.359075 *  -1.21800    1.000000    
    401 O2    c    0.065304 *  0.233455 *  0.359110 *  -1.21800    1.000000    
    402 O2    c    0.898771 *  0.233461 *  0.359260 *  -1.21800    1.000000    
    403 O2    c    0.731802 *  0.233474 *  0.359379 *  -1.21800    1.000000    
    404 O2    c    0.564878 *  0.233454 *  0.359241 *  -1.21800    1.000000    
    405 O2    c    0.398430 *  0.233437 *  0.359092 *  -1.21800    1.000000    
    406 O2    c    0.232088 *  0.899872 *  0.359543 *  -1.21800    1.000000    
    407 O2    c    0.065183 *  0.899991 *  0.359599 *  -1.21800    1.000000    
    408 O2    c    0.898508 *  0.900041 *  0.359414 *  -1.21800    1.000000    
    409 O2    c    0.731778 *  0.900077 *  0.359264 *  -1.21800    1.000000    
    410 O2    c    0.565025 *  0.900042 *  0.359217 *  -1.21800    1.000000    
    411 O2    c    0.398542 *  0.899989 *  0.359311 *  -1.21800    1.000000    
    412 O2    c    0.231907 *  0.566824 *  0.359046 *  -1.21800    1.000000    
    413 O2    c    0.065409 *  0.566879 *  0.359116 *  -1.21800    1.000000    
    414 O2    c    0.898804 *  0.566848 *  0.359326 *  -1.21800    1.000000    
    415 O2    c    0.731797 *  0.566926 *  0.359450 *  -1.21800    1.000000    
    416 O2    c    0.564848 *  0.566854 *  0.359307 *  -1.21800    1.000000    
    417 O2    c    0.315219 *  0.667964 *  0.344274 *  -1.21800    1.000000    
    418 O2    c    0.315209 *  0.465712 *  0.344431 *  -1.21800    1.000000    
    419 O2    c    0.148542 *  0.334672 *  0.344470 *  -1.21800    1.000000    
    420 O2    c    0.148560 *  0.132321 *  0.344424 *  -1.21800    1.000000    
    421 O2    c    0.981860 *  0.334634 *  0.344533 *  -1.21800    1.000000    
    422 O2    c    0.981872 *  0.132345 *  0.344472 *  -1.21800    1.000000    
    423 O2    c    0.815184 *  0.334600 *  0.344625 *  -1.21800    1.000000    
    424 O2    c    0.815203 *  0.132295 *  0.344556 *  -1.21800    1.000000    
    425 O2    c    0.648469 *  0.334594 *  0.344617 *  -1.21800    1.000000    
    426 O2    c    0.648472 *  0.132279 *  0.344546 *  -1.21800    1.000000    
    427 O2    c    0.481837 *  0.334629 *  0.344522 *  -1.21800    1.000000    
    428 O2    c    0.481789 *  0.132299 *  0.344461 *  -1.21800    1.000000    
    429 O2    c    0.315202 *  0.334666 *  0.344463 *  -1.21800    1.000000    
    430 O2    c    0.315201 *  0.132302 *  0.344411 *  -1.21800    1.000000    
    431 O2    c    0.148552 *  0.001231 *  0.344616 *  -1.21800    1.000000    
    432 O2    c    0.148514 *  0.798840 *  0.344491 *  -1.21800    1.000000    
    433 O2    c    0.981927 *  0.001220 *  0.344591 *  -1.21800    1.000000    
    434 O2    c    0.981840 *  0.798954 *  0.344481 *  -1.21800    1.000000    
    435 O2    c    0.815236 *  0.001230 *  0.344536 *  -1.21800    1.000000    
    436 O2    c    0.815179 *  0.799037 *  0.344455 *  -1.21800    1.000000    
    437 O2    c    0.648449 *  0.001235 *  0.344491 *  -1.21800    1.000000    
    438 O2    c    0.648499 *  0.799031 *  0.344414 *  -1.21800    1.000000    
    439 O2    c    0.481777 *  0.001204 *  0.344478 *  -1.21800    1.000000    
    440 O2    c    0.481858 *  0.798970 *  0.344373 *  -1.21800    1.000000    
    441 O2    c    0.315161 *  0.001202 *  0.344537 *  -1.21800    1.000000    
    442 O2    c    0.315202 *  0.798877 *  0.344411 *  -1.21800    1.000000    
    443 O2    c    0.148548 *  0.667948 *  0.344287 *  -1.21800    1.000000    
    444 O2    c    0.148536 *  0.465706 *  0.344438 *  -1.21800    1.000000    
    445 O2    c    0.981769 *  0.667917 *  0.344372 *  -1.21800    1.000000    
    446 O2    c    0.981870 *  0.465720 *  0.344536 *  -1.21800    1.000000    
    447 O2    c    0.815157 *  0.667967 *  0.344504 *  -1.21800    1.000000    
    448 O2    c    0.815180 *  0.465717 *  0.344647 *  -1.21800    1.000000    
    449 O2    c    0.648511 *  0.667984 *  0.344497 *  -1.21800    1.000000    
    450 O2    c    0.648473 *  0.465723 *  0.344640 *  -1.21800    1.000000    
    451 O2    c    0.481883 *  0.667964 *  0.344369 *  -1.21800    1.000000    
    452 O2    c    0.481827 *  0.465726 *  0.344526 *  -1.21800    1.000000    
    453 O2    c    0.398697 *  0.566874 *  0.330522 *  -1.21800    1.000000    
    454 O2    c    0.231860 *  0.233571 *  0.330509 *  -1.21800    1.000000    
    455 O2    c    0.065117 *  0.233546 *  0.330559 *  -1.21800    1.000000    
    456 O2    c    0.898314 *  0.233460 *  0.330688 *  -1.21800    1.000000    
    457 O2    c    0.731839 *  0.233372 *  0.330766 *  -1.21800    1.000000    
    458 O2    c    0.565363 *  0.233397 *  0.330666 *  -1.21800    1.000000    
    459 O2    c    0.398597 *  0.233512 *  0.330537 *  -1.21800    1.000000    
    460 O2    c    0.231606 *  0.899984 *  0.330865 *  -1.21800    1.000000    
    461 O2    c    0.065397 *  0.900026 *  0.330920 *  -1.21800    1.000000    
    462 O2    c    0.898839 *  0.900127 *  0.330808 *  -1.21800    1.000000    
    463 O2    c    0.731984 *  0.900185 *  0.330687 *  -1.21800    1.000000    
    464 O2    c    0.565091 *  0.900126 *  0.330637 *  -1.21800    1.000000    
    465 O2    c    0.398197 *  0.900033 *  0.330704 *  -1.21800    1.000000    
    466 O2    c    0.231861 *  0.566858 *  0.330460 *  -1.21800    1.000000    
    467 O2    c    0.065020 *  0.566845 *  0.330542 *  -1.21800    1.000000    
    468 O2    c    0.898247 *  0.566829 *  0.330721 *  -1.21800    1.000000    
    469 O2    c    0.731839 *  0.566869 *  0.330815 *  -1.21800    1.000000    
    470 O2    c    0.565426 *  0.566892 *  0.330700 *  -1.21800    1.000000    
    471 O2    c    0.398410 *  0.733455 *  0.321639 *  -1.21800    1.000000    
    472 O2    c    0.231872 *  0.400109 *  0.321801 *  -1.21800    1.000000    
    473 O2    c    0.065292 *  0.400121 *  0.321866 *  -1.21800    1.000000    
    474 O2    c    0.898595 *  0.400149 *  0.321989 *  -1.21800    1.000000    
    475 O2    c    0.731825 *  0.400147 *  0.322047 *  -1.21800    1.000000    
    476 O2    c    0.565076 *  0.400150 *  0.321977 *  -1.21800    1.000000    
    477 O2    c    0.398430 *  0.400122 *  0.321854 *  -1.21800    1.000000    
    478 O2    c    0.231871 *  0.066737 *  0.321835 *  -1.21800    1.000000    
    479 O2    c    0.065275 *  0.066739 *  0.321879 *  -1.21800    1.000000    
    480 O2    c    0.898562 *  0.066811 *  0.321910 *  -1.21800    1.000000    
    481 O2    c    0.731821 *  0.066866 *  0.321898 *  -1.21800    1.000000    
    482 O2    c    0.565108 *  0.066849 *  0.321858 *  -1.21800    1.000000    
    483 O2    c    0.398460 *  0.066785 *  0.321826 *  -1.21800    1.000000    
    484 O2    c    0.231867 *  0.733521 *  0.321603 *  -1.21800    1.000000    
    485 O2    c    0.065326 *  0.733501 *  0.321686 *  -1.21800    1.000000    
    486 O2    c    0.898605 *  0.733446 *  0.321798 *  -1.21800    1.000000    
    487 O2    c    0.731820 *  0.733391 *  0.321833 *  -1.21800    1.000000    
    488 O2    c    0.565066 *  0.733407 *  0.321751 *  -1.21800    1.000000    
    489 O2    c    0.315253 *  0.506218 *  0.306764 *  -1.21800    1.000000    
    490 O2    c    0.148484 *  0.172820 *  0.306796 *  -1.21800    1.000000    
    491 O2    c    0.981735 *  0.172809 *  0.306865 *  -1.21800    1.000000    
    492 O2    c    0.815113 *  0.172772 *  0.306896 *  -1.21800    1.000000    
    493 O2    c    0.648591 *  0.172770 *  0.306871 *  -1.21800    1.000000    
    494 O2    c    0.481947 *  0.172803 *  0.306812 *  -1.21800    1.000000    
    495 O2    c    0.315221 *  0.172816 *  0.306770 *  -1.21800    1.000000    
    496 O2    c    0.148486 *  0.839436 *  0.306900 *  -1.21800    1.000000    
    497 O2    c    0.982011 *  0.839465 *  0.306954 *  -1.21800    1.000000    
    498 O2    c    0.815336 *  0.839509 *  0.306936 *  -1.21800    1.000000    
    499 O2    c    0.648542 *  0.839517 *  0.306871 *  -1.21800    1.000000    
    500 O2    c    0.481727 *  0.839504 *  0.306826 *  -1.21800    1.000000    
    501 O2    c    0.315002 *  0.839469 *  0.306842 *  -1.21800    1.000000    
    502 O2    c    0.148439 *  0.506217 *  0.306770 *  -1.21800    1.000000    
    503 O2    c    0.981691 *  0.506198 *  0.306893 *  -1.21800    1.000000    
    504 O2    c    0.815094 *  0.506167 *  0.307005 *  -1.21800    1.000000    
    505 O2    c    0.648603 *  0.506172 *  0.306999 *  -1.21800    1.000000    
    506 O2    c    0.482009 *  0.506203 *  0.306879 *  -1.21800    1.000000    
    507 O2    c    0.315254 *  0.627461 *  0.306660 *  -1.21800    1.000000    
    508 O2    c    0.148478 *  0.294095 *  0.306753 *  -1.21800    1.000000    
    509 O2    c    0.981751 *  0.294092 *  0.306872 *  -1.21800    1.000000    
    510 O2    c    0.815117 *  0.294109 *  0.306977 *  -1.21800    1.000000    
    511 O2    c    0.648581 *  0.294104 *  0.306971 *  -1.21800    1.000000    
    512 O2    c    0.481950 *  0.294086 *  0.306858 *  -1.21800    1.000000    
    513 O2    c    0.315212 *  0.294093 *  0.306747 *  -1.21800    1.000000    
    514 O2    c    0.148483 *  0.960787 *  0.307017 *  -1.21800    1.000000    
    515 O2    c    0.982010 *  0.960776 *  0.307028 *  -1.21800    1.000000    
    516 O2    c    0.815342 *  0.960756 *  0.306966 *  -1.21800    1.000000    
    517 O2    c    0.648538 *  0.960747 *  0.306899 *  -1.21800    1.000000    
    518 O2    c    0.481729 *  0.960738 *  0.306896 *  -1.21800    1.000000    
    519 O2    c    0.315004 *  0.960755 *  0.306957 *  -1.21800    1.000000    
    520 O2    c    0.148450 *  0.627457 *  0.306684 *  -1.21800    1.000000    
    521 O2    c    0.981675 *  0.627477 *  0.306804 *  -1.21800    1.000000    
    522 O2    c    0.815090 *  0.627513 *  0.306894 *  -1.21800    1.000000    
    523 O2    c    0.648612 *  0.627514 *  0.306871 *  -1.21800    1.000000    
    524 O2    c    0.482008 *  0.627482 *  0.306756 *  -1.21800    1.000000    
    525 O2    c    0.398676 *  0.733576 *  0.293986 *  -1.21800    1.000000    
    526 O2    c    0.231834 *  0.400296 *  0.294151 *  -1.21800    1.000000    
    527 O2    c    0.064936 *  0.400233 *  0.294211 *  -1.21800    1.000000    
    528 O2    c    0.898292 *  0.400154 *  0.294319 *  -1.21800    1.000000    
    529 O2    c    0.731861 *  0.400140 *  0.294367 *  -1.21800    1.000000    
    530 O2    c    0.565420 *  0.400154 *  0.294308 *  -1.21800    1.000000    
    531 O2    c    0.398746 *  0.400229 *  0.294201 *  -1.21800    1.000000    
    532 O2    c    0.231779 *  0.066746 *  0.294177 *  -1.21800    1.000000    
    533 O2    c    0.065089 *  0.066814 *  0.294216 *  -1.21800    1.000000    
    534 O2    c    0.898518 *  0.066611 *  0.294244 *  -1.21800    1.000000    
    535 O2    c    0.731928 *  0.066470 *  0.294232 *  -1.21800    1.000000    
    536 O2    c    0.565256 *  0.066554 *  0.294198 *  -1.21800    1.000000    
    537 O2    c    0.398527 *  0.066625 *  0.294172 *  -1.21800    1.000000    
    538 O2    c    0.231786 *  0.733405 *  0.293949 *  -1.21800    1.000000    
    539 O2    c    0.064944 *  0.733391 *  0.294023 *  -1.21800    1.000000    
    540 O2    c    0.898362 *  0.733655 *  0.294128 *  -1.21800    1.000000    
    541 O2    c    0.731922 *  0.733800 *  0.294158 *  -1.21800    1.000000    
    542 O2    c    0.565402 *  0.733713 *  0.294087 *  -1.21800    1.000000    
    543 O176  c    0.730020 *  0.552621 *  0.476667 *  -1.08000    1.000000    
    544 O170  c    0.095361 *  0.942706 *  0.557867 *  -1.08000    1.000000    
    545 O176  c    0.731350 *  0.442735 *  0.471404 *  -1.08000    1.000000    
    546 O170  c    0.219220 *  0.940563 *  0.557480 *  -1.08000    1.000000    
    547 O176  c    0.214252 *  0.894707 *  0.476616 *  -1.08000    1.000000    
    548 O170  c    0.667450 *  0.504098 *  0.554517 *  -1.08000    1.000000    
    549 O176  c    0.089402 *  0.899165 *  0.476639 *  -1.08000    1.000000    
    550 O170  c    0.668164 *  0.391534 *  0.552892 *  -1.08000    1.000000    
    551 O171  c    0.159935 *  0.946297 *  0.592100 *  -2.00000    1.000000    
    552 O171  c    0.659737 *  0.446312 *  0.588022 *  -2.00000    1.000000    
    553 O170  c    0.248577 *  0.806239 *  0.601120 *  -1.08000    1.000000    
    554 O170  c    0.008287 *  0.029165 *  0.583392 *  -1.08000    1.000000    
    555 O170  c    0.311786 *  0.863153 *  0.583396 *  -1.08000    1.000000    
    556 O170  c    0.073001 *  0.088112 *  0.600525 *  -1.08000    1.000000    
    557 O170  c    0.310526 *  0.028983 *  0.582238 *  -1.08000    1.000000    
    558 O170  c    0.007060 *  0.863690 *  0.584156 *  -1.08000    1.000000    
    559 O170  c    0.249258 *  0.086719 *  0.600109 *  -1.08000    1.000000    
    560 O170  c    0.072911 *  0.805253 *  0.601199 *  -1.08000    1.000000    
    561 O170  c    0.161324 *  0.004934 *  0.626228 *  -1.08000    1.000000    
    562 O173  c    0.595228 *  0.426527 *  0.702516 *  -0.69000    1.000000    
    563 O170  c    0.160240 *  0.891583 *  0.626606 *  -1.08000    1.000000    
    564 O172  c    0.723755 *  0.427125 *  0.702464 *  -0.69000    1.000000    
    565 H21   c    0.720244 *  0.424774 *  0.713583 *   0.22000    1.000000    
    566 O170  c    0.720796 *  0.442629 *  0.622377 *  -1.08000    1.000000    
    567 O172  c    0.157661 *  0.013946 *  0.706386 *  -0.69000    1.000000    
    568 H21   c    0.156933 *  0.011615 *  0.717528 *   0.22000    1.000000    
    569 O170  c    0.596244 *  0.442060 *  0.622294 *  -1.08000    1.000000    
    570 O173  c    0.156507 *  0.896913 *  0.706907 *  -0.69000    1.000000    
    571 O170  c    0.506157 *  0.362403 *  0.596436 *  -1.08000    1.000000    
    572 O170  c    0.746047 *  0.587645 *  0.581115 *  -1.08000    1.000000    
    573 O170  c    0.570936 *  0.309091 *  0.578382 *  -1.08000    1.000000    
    574 O170  c    0.812935 *  0.528828 *  0.597908 *  -1.08000    1.000000    
    575 O170  c    0.746867 *  0.306904 *  0.579786 *  -1.08000    1.000000    
    576 O170  c    0.570512 *  0.584820 *  0.579838 *  -1.08000    1.000000    
    577 O170  c    0.813657 *  0.363009 *  0.597077 *  -1.08000    1.000000    
    578 O170  c    0.506063 *  0.528319 *  0.597429 *  -1.08000    1.000000    
    579 C912  c    0.707049 *  0.533477 *  0.507965 *  -0.07025    1.000000    
    580 C912  c    0.087242 *  0.928470 *  0.525198 *  -0.07025    1.000000    
    581 C912  c    0.707830 *  0.411636 *  0.503960 *  -0.07025    1.000000    
    582 C912  c    0.222141 *  0.925492 *  0.524870 *  -0.07025    1.000000    
    583 C912  c    0.220939 *  0.916389 *  0.508976 *  -0.07025    1.000000    
    584 C912  c    0.692951 *  0.523491 *  0.523517 *  -0.07025    1.000000    
    585 C912  c    0.086084 *  0.919567 *  0.509290 *  -0.07025    1.000000    
    586 C912  c    0.693969 *  0.401659 *  0.519608 *  -0.07025    1.000000    
    587 C916  c    0.728813 *  0.491079 *  0.481253 *   1.07050    1.000000    
    588 C913  c    0.156719 *  0.940180 *  0.550435 *   1.07050    1.000000    
    589 C916  c    0.151971 *  0.902277 *  0.483811 *   1.07050    1.000000    
    590 C913  c    0.671377 *  0.449862 *  0.546512 *   1.07050    1.000000    
    591 C902  c    0.714347 *  0.477649 *  0.498250 *   0.00500    1.000000    
    592 C902  c    0.155280 *  0.931246 *  0.532966 *   0.00500    1.000000    
    593 C902  c    0.152942 *  0.913206 *  0.501221 *   0.00500    1.000000    
    594 C902  c    0.686471 *  0.457809 *  0.529320 *   0.00500    1.000000    
    595 C912  c    0.348272 *  0.693390 *  0.600191 *  -0.07025    1.000000    
    596 C912  c    0.899109 *  0.139135 *  0.580768 *  -0.07025    1.000000    
    597 C912  c    0.420127 *  0.752342 *  0.580945 *  -0.07025    1.000000    
    598 C912  c    0.972039 *  0.200092 *  0.599518 *  -0.07025    1.000000    
    599 C912  c    0.419406 *  0.140127 *  0.579287 *  -0.07025    1.000000    
    600 C912  c    0.897763 *  0.753994 *  0.582023 *  -0.07025    1.000000    
    601 C912  c    0.349303 *  0.198621 *  0.598869 *  -0.07025    1.000000    
    602 C912  c    0.972254 *  0.692796 *  0.600471 *  -0.07025    1.000000    
    603 C912  c    0.160290 *  0.012407 *  0.658659 *  -0.07025    1.000000    
    604 C912  c    0.591497 *  0.433064 *  0.670928 *  -0.07025    1.000000    
    605 C912  c    0.159091 *  0.889497 *  0.659282 *  -0.07025    1.000000    
    606 C912  c    0.726656 *  0.433699 *  0.670801 *  -0.07025    1.000000    
    607 C912  c    0.726164 *  0.436828 *  0.654789 *  -0.07025    1.000000    
    608 C912  c    0.159576 *  0.014117 *  0.674681 *  -0.07025    1.000000    
    609 C912  c    0.591170 *  0.436193 *  0.654912 *  -0.07025    1.000000    
    610 C912  c    0.158372 *  0.891058 *  0.675309 *  -0.07025    1.000000    
    611 C912  c    0.398936 *  0.253263 *  0.598124 *  -0.07025    1.000000    
    612 C912  c    0.847682 *  0.699604 *  0.581456 *  -0.07025    1.000000    
    613 C912  c    0.469076 *  0.194885 *  0.578530 *  -0.07025    1.000000    
    614 C912  c    0.922262 *  0.638346 *  0.599878 *  -0.07025    1.000000    
    615 C912  c    0.848940 *  0.193475 *  0.580067 *  -0.07025    1.000000    
    616 C912  c    0.469536 *  0.697447 *  0.580255 *  -0.07025    1.000000    
    617 C912  c    0.921880 *  0.254354 *  0.598828 *  -0.07025    1.000000    
    618 C912  c    0.397616 *  0.638473 *  0.599487 *  -0.07025    1.000000    
    619 C913  c    0.303902 *  0.810847 *  0.591939 *   1.07050    1.000000    
    620 C913  c    0.017007 *  0.082558 *  0.591541 *   1.07050    1.000000    
    621 C913  c    0.303502 *  0.081786 *  0.590658 *   1.07050    1.000000    
    622 C913  c    0.016239 *  0.810642 *  0.592399 *   1.07050    1.000000    
    623 C913  c    0.160742 *  0.948718 *  0.633476 *   1.07050    1.000000    
    624 C914  c    0.659515 *  0.428126 *  0.696385 *   1.07050    1.000000    
    625 C913  c    0.658416 *  0.441372 *  0.629379 *   1.07050    1.000000    
    626 C914  c    0.157509 *  0.954979 *  0.700537 *   1.07050    1.000000    
    627 C913  c    0.514483 *  0.312109 *  0.587300 *   1.07050    1.000000    
    628 C913  c    0.803447 *  0.581914 *  0.589681 *   1.07050    1.000000    
    629 C913  c    0.804128 *  0.311192 *  0.588448 *   1.07050    1.000000    
    630 C913  c    0.514096 *  0.580084 *  0.588716 *   1.07050    1.000000    
    631 C902  c    0.359139 *  0.750715 *  0.590958 *   0.00500    1.000000    
    632 C902  c    0.960999 *  0.142063 *  0.590536 *   0.00500    1.000000    
    633 C902  c    0.359152 *  0.141595 *  0.589506 *   0.00500    1.000000    
    634 C902  c    0.960383 *  0.750984 *  0.591576 *   0.00500    1.000000    
    635 C902  c    0.160035 *  0.950175 *  0.651025 *   0.00500    1.000000    
    636 C902  c    0.659257 *  0.431797 *  0.678835 *   0.00500    1.000000    
    637 C902  c    0.658499 *  0.438051 *  0.646912 *   0.00500    1.000000    
    638 C902  c    0.158586 *  0.953377 *  0.682972 *   0.00500    1.000000    
    639 C902  c    0.459306 *  0.251795 *  0.587966 *   0.00500    1.000000    
    640 C902  c    0.859485 *  0.641464 *  0.590378 *   0.00500    1.000000    
    641 C902  c    0.859878 *  0.251396 *  0.589114 *   0.00500    1.000000    
    642 C902  c    0.458739 *  0.640178 *  0.589519 *   0.00500    1.000000    
    643 H915  c    0.712261 *  0.584750 *  0.503151 *   0.11250    1.000000    
    644 H915  c    0.035189 *  0.933317 *  0.531699 *   0.11250    1.000000    
    645 H915  c    0.713515 *  0.368416 *  0.496075 *   0.11250    1.000000    
    646 H915  c    0.275092 *  0.928068 *  0.531124 *   0.11250    1.000000    
    647 H915  c    0.272866 *  0.911941 *  0.502416 *   0.11250    1.000000    
    648 H915  c    0.686921 *  0.566744 *  0.531349 *   0.11250    1.000000    
    649 H915  c    0.033238 *  0.917372 *  0.502982 *   0.11250    1.000000    
    650 H915  c    0.688674 *  0.350307 *  0.524323 *   0.11250    1.000000    
    651 H915  c    0.300227 *  0.692249 *  0.607975 *   0.11250    1.000000    
    652 H915  c    0.890475 *  0.093856 *  0.573657 *   0.11250    1.000000    
    653 H915  c    0.428697 *  0.797061 *  0.573651 *   0.11250    1.000000    
    654 H915  c    0.020775 *  0.202269 *  0.607104 *   0.11250    1.000000    
    655 H915  c    0.427200 *  0.095679 *  0.571872 *   0.11250    1.000000    
    656 H915  c    0.888459 *  0.799405 *  0.574991 *   0.11250    1.000000    
    657 H915  c    0.301878 *  0.199676 *  0.606814 *   0.11250    1.000000    
    658 H915  c    0.021592 *  0.690587 *  0.607889 *   0.11250    1.000000    
    659 H915  c    0.161039 *  0.059281 *  0.651852 *   0.11250    1.000000    
    660 H915  c    0.538983 *  0.431555 *  0.677373 *   0.11250    1.000000    
    661 H915  c    0.158910 *  0.841272 *  0.652979 *   0.11250    1.000000    
    662 H915  c    0.779567 *  0.432694 *  0.677102 *   0.11250    1.000000    
    663 H915  c    0.778204 *  0.438334 *  0.648178 *   0.11250    1.000000    
    664 H915  c    0.159758 *  0.062791 *  0.680792 *   0.11250    1.000000    
    665 H915  c    0.538777 *  0.437207 *  0.648417 *   0.11250    1.000000    
    666 H915  c    0.157608 *  0.843749 *  0.681956 *   0.11250    1.000000    
    667 H915  c    0.391199 *  0.297890 *  0.605481 *   0.11250    1.000000    
    668 H915  c    0.798540 *  0.701827 *  0.573976 *   0.11250    1.000000    
    669 H915  c    0.516285 *  0.193764 *  0.570525 *   0.11250    1.000000    
    670 H915  c    0.931632 *  0.592728 *  0.606829 *   0.11250    1.000000    
    671 H915  c    0.800447 *  0.191271 *  0.572409 *   0.11250    1.000000    
    672 H915  c    0.517406 *  0.698621 *  0.572420 *   0.11250    1.000000    
    673 H915  c    0.930506 *  0.299836 *  0.605867 *   0.11250    1.000000    
    674 H915  c    0.389029 *  0.593585 *  0.606720 *   0.11250    1.000000    
    675 Zn172 c    0.160464 *  0.862138 *  0.605115 *   2.00000    1.000000    
    676 Zn172 c    0.063938 *  0.945772 *  0.578806 *   2.00000    1.000000    
    677 Zn172 c    0.253974 *  0.945152 *  0.578230 *   2.00000    1.000000    
    678 Zn172 c    0.160972 *  0.031786 *  0.604588 *   2.00000    1.000000    
    679 Zn172 c    0.753174 *  0.445008 *  0.600941 *   2.00000    1.000000    
    680 Zn172 c    0.660096 *  0.533157 *  0.575230 *   2.00000    1.000000    
    681 Zn172 c    0.565756 *  0.444551 *  0.600721 *   2.00000    1.000000    
    682 Zn172 c    0.660625 *  0.361181 *  0.573854 *   2.00000    1.000000    
--------------------------------------------------------------------------------



  Molecule list generated from bond lengths :

  Total number of molecules =    10

--------------------------------------------------------------------------------
Molecule No./:  Atoms
Periodicity  :  
--------------------------------------------------------------------------------
     1  0    : O3   c   184 H22  c   185
     2  0    : O3   c   195 H22  c   196
     3  0    : O176 c   543 O176 c   545 O170 c   548 O170 c   550 C912 c   579
             : C912 c   581 C912 c   584 C912 c   586 C916 c   587 C913 c   590
             : C902 c   591 C902 c   594 H915 c   643 H915 c   645 H915 c   648
             : H915 c   650
     4  0    : O170 c   544 O170 c   546 O176 c   547 O176 c   549 C912 c   580
             : C912 c   582 C912 c   583 C912 c   585 C913 c   588 C916 c   589
             : C902 c   592 C902 c   593 H915 c   644 H915 c   646 H915 c   647
             : H915 c   649
     5  0    : O170 c   553 O170 c   555 O170 c   576 O170 c   578 C912 c   595
             : C912 c   597 C912 c   616 C912 c   618 C913 c   619 C913 c   630
             : C902 c   631 C902 c   642 H915 c   651 H915 c   653 H915 c   672
             : H915 c   674
     6  0    : O170 c   554 O170 c   556 O170 c   575 O170 c   577 C912 c   596
             : C912 c   598 C912 c   615 C912 c   617 C913 c   620 C913 c   629
             : C902 c   632 C902 c   641 H915 c   652 H915 c   654 H915 c   671
             : H915 c   673
     7  0    : O170 c   557 O170 c   559 O170 c   571 O170 c   573 C912 c   599
             : C912 c   601 C912 c   611 C912 c   613 C913 c   621 C913 c   627
             : C902 c   633 C902 c   639 H915 c   655 H915 c   657 H915 c   667
             : H915 c   669
     8  0    : O170 c   558 O170 c   560 O170 c   572 O170 c   574 C912 c   600
             : C912 c   602 C912 c   612 C912 c   614 C913 c   622 C913 c   628
             : C902 c   634 C902 c   640 H915 c   656 H915 c   658 H915 c   668
             : H915 c   670
     9  0    : O170 c   561 O170 c   563 O172 c   567 H21  c   568 O173 c   570
             : C912 c   603 C912 c   605 C912 c   608 C912 c   610 C913 c   623
             : C914 c   626 C902 c   635 C902 c   638 H915 c   659 H915 c   661
             : H915 c   664 H915 c   666
    10  0    : O173 c   562 O172 c   564 H21  c   565 O170 c   566 O170 c   569
             : C912 c   604 C912 c   606 C912 c   607 C912 c   609 C914 c   624
             : C913 c   625 C902 c   636 C902 c   637 H915 c   660 H915 c   662
             : H915 c   663 H915 c   665
--------------------------------------------------------------------------------


********************************************************************************
*  General input information                                                   *
********************************************************************************

  Species output for all configurations : 

--------------------------------------------------------------------------------
  Species    Type    Atomic    Atomic    Charge       Radii (Angs)     Library
                     Number     Mass       (e)     Cova   Ionic  VDW   Symbol
--------------------------------------------------------------------------------
    C913     Core        6      12.01   1.070500   0.770  0.000  1.530          
    O170     Core        8      16.00  -1.080000   0.730  0.000  1.360          
    O172     Core        8      16.00  -0.690000   0.730  0.000  1.360          
    O173     Core        8      16.00  -0.690000   0.730  0.000  1.360          
    C914     Core        6      12.01   1.070500   0.770  0.000  1.530          
    O175     Core        8      16.00  -1.080000   0.730  0.000  1.360          
    C915     Core        6      12.01   1.070500   0.770  0.000  1.530          
    C917     Core        6      12.01   1.070500   0.770  0.000  1.530          
    O177     Core        8      16.00  -1.080000   0.730  0.000  1.360          
    O176     Core        8      16.00  -1.080000   0.730  0.000  1.360          
    C916     Core        6      12.01   1.070500   0.770  0.000  1.530          
    C902     Core        6      12.01   0.005000   0.770  0.000  1.530          
    H915     Core        1       1.01   0.112500   0.370  0.000  1.080          
    C912     Core        6      12.01  -0.070250   0.770  0.000  1.530          
    H21      Core        1       1.01   0.220000   0.370  0.000  1.080          
    H22      Core        1       1.01   0.120000   0.370  0.000  1.080          
    O2       Core        8      16.00  -1.218000   0.730  0.000  1.360          
    Ti       Core       22      47.88   2.436000   0.000  0.000  2.190          
    O3       Core        8      16.00  -0.338000   0.730  0.000  1.360          
    Zn172    Core       30      65.39   2.000000   0.000  0.000  2.160          
    O171     Core        8      16.00  -2.000000   0.730  0.000  1.360          
--------------------------------------------------------------------------------


  Lattice summation method               =    Ewald          (3-D)
                                         =    Parry          (2-D)
                                         =    Saunders et al (1-D)
  Accuracy factor for lattice sums       =   12.000


  Time limit = Infinity

  Maximum range for interatomic potentials =    100000.000000 Angstroms

  General interatomic potentials :

--------------------------------------------------------------------------------
Atom  Types   Potential      Parameter       Value         Units   Cutoffs(Ang)
  1     2                                                            Min /  Max 
--------------------------------------------------------------------------------
O175 c Zn172c MM3buck       MM3buck A        184000.00    None      3Bond 12.000
                            MM3buck B        11.500000    None      
                            MM3buck C        2.5500000    None      
                            MM3buck epsilon 0.31250271E-02eV        
                            MM3buck rv       3.9595000    Ang       
--------------------------------------------------------------------------------
O176 c Zn172c MM3buck       MM3buck A        184000.00    None      3Bond 12.000
                            MM3buck B        11.500000    None      
                            MM3buck C        2.5500000    None      
                            MM3buck epsilon 0.31250271E-02eV        
                            MM3buck rv       3.9595000    Ang       
--------------------------------------------------------------------------------
O177 c Zn172c MM3buck       MM3buck A        184000.00    None      3Bond 12.000
                            MM3buck B        11.500000    None      
                            MM3buck C        2.5500000    None      
                            MM3buck epsilon 0.31250271E-02eV        
                            MM3buck rv       3.9595000    Ang       
--------------------------------------------------------------------------------
O170 c Zn172c MM3buck       MM3buck A        184000.00    None      3Bond 12.000
                            MM3buck B        11.500000    None      
                            MM3buck C        2.5500000    None      
                            MM3buck epsilon 0.31250271E-02eV        
                            MM3buck rv       3.9595000    Ang       
--------------------------------------------------------------------------------
O171 c Zn172c MM3buck       MM3buck A        184000.00    None      3Bond 12.000
                            MM3buck B        11.500000    None      
                            MM3buck C        2.5500000    None      
                            MM3buck epsilon 0.55956611E-02eV        
                            MM3buck rv       3.7332600    Ang       
--------------------------------------------------------------------------------
O3   c Ti   c MM3buck       MM3buck A        184000.00    None      3Bond 12.000
                            MM3buck B        11.500000    None      
                            MM3buck C        2.5500000    None      
                            MM3buck epsilon 0.44016176E-02eV        
                            MM3buck rv       3.0441150    Ang       
--------------------------------------------------------------------------------
O2   c Ti   c MM3buck       MM3buck A        184000.00    None      3Bond 12.000
                            MM3buck B        11.500000    None      
                            MM3buck C        2.5500000    None      
                            MM3buck epsilon 0.12586926E-01eV        
                            MM3buck rv       3.0441150    Ang       
--------------------------------------------------------------------------------
O3   c O3   c MM3buck       MM3buck A        184000.00    None      3Bond 12.000
                            MM3buck B        11.500000    None      
                            MM3buck C        2.5500000    None      
                            MM3buck epsilon 0.10031500E-02eV        
                            MM3buck rv       3.1875200    Ang       
--------------------------------------------------------------------------------
O2   c O2   c MM3buck       MM3buck A        184000.00    None      3Bond 12.000
                            MM3buck B        11.500000    None      
                            MM3buck C        2.5500000    None      
                            MM3buck epsilon 0.82031500E-02eV        
                            MM3buck rv       3.1875200    Ang       
--------------------------------------------------------------------------------
O2   c O172 c MM3buck       MM3buck A        184000.00    None      3Bond  0.000
                            MM3buck B        11.500000    None      
                            MM3buck C        2.5500000    None      
                            MM3buck epsilon 0.45812399E-02eV        
                            MM3buck rv       3.4137600    Ang       
--------------------------------------------------------------------------------
O2   c O173 c MM3buck       MM3buck A        184000.00    None      3Bond  0.000
                            MM3buck B        11.500000    None      
                            MM3buck C        2.5500000    None      
                            MM3buck epsilon 0.45812399E-02eV        
                            MM3buck rv       3.4137600    Ang       
--------------------------------------------------------------------------------
O2   c O170 c MM3buck       MM3buck A        184000.00    None      3Bond 12.000
                            MM3buck B        11.500000    None      
                            MM3buck C        2.5500000    None      
                            MM3buck epsilon 0.45812399E-02eV        
                            MM3buck rv       3.4137600    Ang       
--------------------------------------------------------------------------------
O3   c O172 c MM3buck       MM3buck A        184000.00    None      3Bond  0.000
                            MM3buck B        11.500000    None      
                            MM3buck C        2.5500000    None      
                            MM3buck epsilon 0.16020485E-02eV        
                            MM3buck rv       3.4137600    Ang       
--------------------------------------------------------------------------------
O3   c O173 c MM3buck       MM3buck A        184000.00    None      3Bond  0.000
                            MM3buck B        11.500000    None      
                            MM3buck C        2.5500000    None      
                            MM3buck epsilon 0.16020485E-02eV        
                            MM3buck rv       3.4137600    Ang       
--------------------------------------------------------------------------------
O3   c O170 c MM3buck       MM3buck A        184000.00    None      3Bond 12.000
                            MM3buck B        11.500000    None      
                            MM3buck C        2.5500000    None      
                            MM3buck epsilon 0.16020485E-02eV        
                            MM3buck rv       3.4137600    Ang       
--------------------------------------------------------------------------------
O3   c O175 c MM3buck       MM3buck A        184000.00    None      3Bond 12.000
                            MM3buck B        11.500000    None      
                            MM3buck C        2.5500000    None      
                            MM3buck epsilon 0.16020485E-02eV        
                            MM3buck rv       3.4137600    Ang       
--------------------------------------------------------------------------------
O2   c O175 c MM3buck       MM3buck A        184000.00    None      3Bond 12.000
                            MM3buck B        11.500000    None      
                            MM3buck C        2.5500000    None      
                            MM3buck epsilon 0.45812399E-02eV        
                            MM3buck rv       3.4137600    Ang       
--------------------------------------------------------------------------------
O3   c O176 c MM3buck       MM3buck A        184000.00    None      3Bond 12.000
                            MM3buck B        11.500000    None      
                            MM3buck C        2.5500000    None      
                            MM3buck epsilon 0.16020485E-02eV        
                            MM3buck rv       3.4137600    Ang       
--------------------------------------------------------------------------------
O2   c O176 c MM3buck       MM3buck A        184000.00    None      3Bond 12.000
                            MM3buck B        11.500000    None      
                            MM3buck C        2.5500000    None      
                            MM3buck epsilon 0.45812399E-02eV        
                            MM3buck rv       3.4137600    Ang       
--------------------------------------------------------------------------------
O3   c O177 c MM3buck       MM3buck A        184000.00    None      3Bond 12.000
                            MM3buck B        11.500000    None      
                            MM3buck C        2.5500000    None      
                            MM3buck epsilon 0.16020485E-02eV        
                            MM3buck rv       3.4137600    Ang       
--------------------------------------------------------------------------------
O2   c O177 c MM3buck       MM3buck A        184000.00    None      3Bond 12.000
                            MM3buck B        11.500000    None      
                            MM3buck C        2.5500000    None      
                            MM3buck epsilon 0.45812399E-02eV        
                            MM3buck rv       3.4137600    Ang       
--------------------------------------------------------------------------------
O172 c Ti   c MM3buck       MM3buck A        184000.00    None      3Bond 12.000
                            MM3buck B        11.500000    None      
                            MM3buck C        2.5500000    None      
                            MM3buck epsilon 0.70294618E-02eV        
                            MM3buck rv       3.2703550    Ang       
--------------------------------------------------------------------------------
O170 c Ti   c MM3buck       MM3buck A        184000.00    None      3Bond 12.000
                            MM3buck B        11.500000    None      
                            MM3buck C        2.5500000    None      
                            MM3buck epsilon 0.70294618E-02eV        
                            MM3buck rv       3.2703550    Ang       
--------------------------------------------------------------------------------
O173 c Ti   c MM3buck       MM3buck A        184000.00    None      3Bond 12.000
                            MM3buck B        11.500000    None      
                            MM3buck C        2.5500000    None      
                            MM3buck epsilon 0.70294618E-02eV        
                            MM3buck rv       3.2703550    Ang       
--------------------------------------------------------------------------------
O175 c Ti   c MM3buck       MM3buck A        184000.00    None      3Bond 12.000
                            MM3buck B        11.500000    None      
                            MM3buck C        2.5500000    None      
                            MM3buck epsilon 0.70294618E-02eV        
                            MM3buck rv       3.2703550    Ang       
--------------------------------------------------------------------------------
O176 c Ti   c MM3buck       MM3buck A        184000.00    None      3Bond 12.000
                            MM3buck B        11.500000    None      
                            MM3buck C        2.5500000    None      
                            MM3buck epsilon 0.70294618E-02eV        
                            MM3buck rv       3.2703550    Ang       
--------------------------------------------------------------------------------
O177 c Ti   c MM3buck       MM3buck A        184000.00    None      3Bond 12.000
                            MM3buck B        11.500000    None      
                            MM3buck C        2.5500000    None      
                            MM3buck epsilon 0.70294618E-02eV        
                            MM3buck rv       3.2703550    Ang       
--------------------------------------------------------------------------------
Ti   c Ti   c MM3buck       MM3buck A        184000.00    None      3Bond 12.000
                            MM3buck B        11.500000    None      
                            MM3buck C        2.5500000    None      
                            MM3buck epsilon 0.19313400E-01eV        
                            MM3buck rv       2.9007100    Ang       
--------------------------------------------------------------------------------
Ti3  c Ti3  c MM3buck       MM3buck A        184000.00    None      3Bond 12.000
                            MM3buck B        11.500000    None      
                            MM3buck C        2.5500000    None      
                            MM3buck epsilon 0.19313400E-01eV        
                            MM3buck rv       2.9007100    Ang       
--------------------------------------------------------------------------------
C916 c O3   c Lenn/es       Lennard epsilon  0.0000000    eV        3Bond 12.500
                            Lennard sigma/m  0.0000000    Ang       
                            Exponent m        12          None
                            Exponent n         6          None
--------------------------------------------------------------------------------
C917 c O3   c Lenn/es       Lennard epsilon  0.0000000    eV        3Bond 12.500
                            Lennard sigma/m  0.0000000    Ang       
                            Exponent m        12          None
                            Exponent n         6          None
--------------------------------------------------------------------------------
O3   c O175 c Lenn/es       Lennard epsilon  0.0000000    eV        3Bond 12.500
                            Lennard sigma/m  0.0000000    Ang       
                            Exponent m        12          None
                            Exponent n         6          None
--------------------------------------------------------------------------------
C915 c O3   c Lenn/es       Lennard epsilon  0.0000000    eV        3Bond 12.500
                            Lennard sigma/m  0.0000000    Ang       
                            Exponent m        12          None
                            Exponent n         6          None
--------------------------------------------------------------------------------
C902 c O3   c Lenn/es       Lennard epsilon  0.0000000    eV        3Bond 12.500
                            Lennard sigma/m  0.0000000    Ang       
                            Exponent m        12          None
                            Exponent n         6          None
--------------------------------------------------------------------------------
C914 c O3   c Lenn/es       Lennard epsilon  0.0000000    eV        3Bond 12.500
                            Lennard sigma/m  0.0000000    Ang       
                            Exponent m        12          None
                            Exponent n         6          None
--------------------------------------------------------------------------------
C913 c O3   c Lenn/es       Lennard epsilon  0.0000000    eV        3Bond 12.500
                            Lennard sigma/m  0.0000000    Ang       
                            Exponent m        12          None
                            Exponent n         6          None
--------------------------------------------------------------------------------
C912 c O3   c Lenn/es       Lennard epsilon  0.0000000    eV        3Bond 12.500
                            Lennard sigma/m  0.0000000    Ang       
                            Exponent m        12          None
                            Exponent n         6          None
--------------------------------------------------------------------------------
H915 c O3   c Lenn/es       Lennard epsilon  0.0000000    eV        3Bond 12.500
                            Lennard sigma/m  0.0000000    Ang       
                            Exponent m        12          None
                            Exponent n         6          None
--------------------------------------------------------------------------------
H21  c O3   c Lenn/es       Lennard epsilon  0.0000000    eV        3Bond 12.500
                            Lennard sigma/m  0.0000000    Ang       
                            Exponent m        12          None
                            Exponent n         6          None
--------------------------------------------------------------------------------
C916 c O2   c Lenn/es       Lennard epsilon  0.0000000    eV        3Bond 12.500
                            Lennard sigma/m  0.0000000    Ang       
                            Exponent m        12          None
                            Exponent n         6          None
--------------------------------------------------------------------------------
C917 c O2   c Lenn/es       Lennard epsilon  0.0000000    eV        3Bond 12.500
[...]
   428 O2    c     19.414244           0.001121   -1.404210   -0.047716
   429 O2    c     19.434041           0.002059    1.447595   -0.049090
   430 O2    c     19.409042           0.009613   -1.402311   -0.038159
   431 O2    c     19.386964           0.007905    1.429853   -0.032303
   432 O2    c     19.408589           0.022565   -1.468694   -0.059306
   433 O2    c     19.387195           0.005645    1.430983   -0.032284
   434 O2    c     19.401335           0.019206   -1.457878   -0.031559
   435 O2    c     19.398158          -0.000837    1.423887   -0.039214
   436 O2    c     19.407626           0.001892   -1.445727   -0.024844
   437 O2    c     19.408676          -0.006529    1.416943   -0.041902
   438 O2    c     19.419699          -0.016386   -1.440375   -0.034407
   439 O2    c     19.417513          -0.005098    1.405072   -0.039497
   440 O2    c     19.434575          -0.017465   -1.434916   -0.050538
   441 O2    c     19.408418           0.002633    1.409804   -0.032663
   442 O2    c     19.431321          -0.005697   -1.450055   -0.064126
   443 O2    c     19.431818           0.016494    1.392175   -0.047003
   444 O2    c     19.436909           0.003427   -1.401723   -0.040505
   445 O2    c     19.409335           0.007115    1.407528   -0.025242
   446 O2    c     19.419074           0.000962   -1.424449   -0.044027
   447 O2    c     19.407501          -0.003963    1.420448   -0.026965
   448 O2    c     19.416255           0.000152   -1.430832   -0.051163
   449 O2    c     19.426131          -0.012385    1.411908   -0.037419
   450 O2    c     19.430881          -0.003170   -1.417546   -0.043151
   451 O2    c     19.439204          -0.009771    1.404130   -0.049540
   452 O2    c     19.439653          -0.000909   -1.408050   -0.042184
   453 O2    c     20.590727          -0.021278   -0.006257    0.384227
   454 O2    c     20.558836           0.016362   -0.007357    0.364056
   455 O2    c     20.551572           0.013020   -0.008846    0.365039
   456 O2    c     20.552178          -0.010517   -0.009787    0.368134
   457 O2    c     20.557515          -0.023013   -0.001239    0.366165
   458 O2    c     20.564614          -0.001889    0.003033    0.366412
   459 O2    c     20.566820           0.008470   -0.004117    0.367594
   460 O2    c     20.526151           0.120539    0.016914    0.353748
   461 O2    c     20.511902          -0.042193    0.006735    0.347540
   462 O2    c     20.506572          -0.107631   -0.006294    0.333888
   463 O2    c     20.527959          -0.065275   -0.009965    0.344710
   464 O2    c     20.542868          -0.006692   -0.000521    0.351334
   465 O2    c     20.533534           0.095347    0.013549    0.342595
   466 O2    c     20.580821           0.043744   -0.007500    0.378816
   467 O2    c     20.562450           0.108127    0.002819    0.372374
   468 O2    c     20.557280           0.013377    0.016725    0.376201
   469 O2    c     20.555294          -0.089256    0.012078    0.362068
   470 O2    c     20.573294          -0.052972   -0.000159    0.368916
   471 O2    c     18.832763           0.026413    0.007014    0.058084
   472 O2    c     18.784957           0.007908    0.001911   -0.016815
   473 O2    c     18.787229           0.017943   -0.000948   -0.003486
   474 O2    c     18.801917           0.007437   -0.004885    0.021154
   475 O2    c     18.801038          -0.014660   -0.003816    0.013156
   476 O2    c     18.790301          -0.015722   -0.001333   -0.011070
   477 O2    c     18.785954          -0.005718    0.000823   -0.018603
   478 O2    c     18.770621          -0.005610   -0.005714   -0.016244
   479 O2    c     18.761244           0.004262   -0.002729   -0.021673
   480 O2    c     18.759415           0.013520   -0.004978   -0.024643
   481 O2    c     18.768926           0.008439   -0.006769   -0.016818
   482 O2    c     18.777721          -0.005908   -0.009018   -0.011462
   483 O2    c     18.778098          -0.013239   -0.010022   -0.013330
   484 O2    c     18.846458          -0.016388    0.002022    0.083212
   485 O2    c     18.809124          -0.045846    0.002975    0.040363
   486 O2    c     18.768739          -0.026406    0.009059   -0.019682
   487 O2    c     18.761370           0.018304    0.009713   -0.035484
   488 O2    c     18.796563           0.044238    0.008363    0.004850
   489 O2    c     19.868784           0.004695    3.385662    0.708361
   490 O2    c     19.853279           0.006510    3.392789    0.719860
   491 O2    c     19.847854           0.002036    3.391360    0.719411
   492 O2    c     19.851685          -0.004360    3.382589    0.725103
   493 O2    c     19.860484          -0.004963    3.374962    0.729863
   494 O2    c     19.863419          -0.000828    3.375503    0.732910
   495 O2    c     19.860125           0.003783    3.384198    0.726963
   496 O2    c     19.850520           0.009340    3.339565    0.780790
   497 O2    c     19.841133          -0.003190    3.353626    0.755904
   498 O2    c     19.840712          -0.011675    3.360917    0.730535
   499 O2    c     19.849576          -0.008620    3.353728    0.729227
   500 O2    c     19.858102           0.002730    3.338289    0.741606
   501 O2    c     19.858511           0.011342    3.330935    0.765202
   502 O2    c     19.860313           0.011698    3.381796    0.717542
   503 O2    c     19.855181           0.005517    3.377097    0.748011
   504 O2    c     19.855935          -0.005170    3.373206    0.757452
   505 O2    c     19.861262          -0.011232    3.374735    0.735965
   506 O2    c     19.868933          -0.007053    3.382779    0.719063
   507 O2    c     19.867975           0.004312   -3.369114    0.736290
   508 O2    c     19.853502           0.005462   -3.363111    0.746906
   509 O2    c     19.850016          -0.000246   -3.367388    0.745518
   510 O2    c     19.852858          -0.004644   -3.369844    0.741242
   511 O2    c     19.858618          -0.005423   -3.368808    0.736247
   512 O2    c     19.864565          -0.001867   -3.367168    0.739701
   513 O2    c     19.862363           0.005097   -3.363635    0.744499
   514 O2    c     19.850041           0.009464   -3.371627    0.740577
   515 O2    c     19.840895          -0.002338   -3.363269    0.741322
   516 O2    c     19.841248          -0.012414   -3.355241    0.733857
   517 O2    c     19.850469          -0.008790   -3.355413    0.724600
   518 O2    c     19.857001           0.002663   -3.360761    0.711726
   519 O2    c     19.856845           0.010439   -3.368395    0.717424
   520 O2    c     19.860326           0.012128   -3.379547    0.730339
   521 O2    c     19.853494           0.007938   -3.391618    0.736408
   522 O2    c     19.854417          -0.004331   -3.391880    0.737826
   523 O2    c     19.862268          -0.010980   -3.379761    0.732388
   524 O2    c     19.868868          -0.007178   -3.369571    0.738690
   525 O2    c     17.262598          -0.028254   -0.016160    7.806977
   526 O2    c     17.248842          -0.000215   -0.018606    7.817956
   527 O2    c     17.244104          -0.010452   -0.003280    7.822723
   528 O2    c     17.242029          -0.008712    0.017642    7.822889
   529 O2    c     17.245760           0.006223    0.011550    7.819966
   530 O2    c     17.250418           0.008277   -0.001176    7.816961
   531 O2    c     17.252170           0.005500   -0.009759    7.815607
   532 O2    c     17.225835           0.016093    0.006164    7.820309
   533 O2    c     17.218484           0.002581   -0.005935    7.825010
   534 O2    c     17.219748          -0.016423    0.006528    7.819042
   535 O2    c     17.227975          -0.017715    0.010262    7.808609
   536 O2    c     17.235136          -0.000963    0.019850    7.804389
   537 O2    c     17.234161           0.016078    0.029060    7.810016
   538 O2    c     17.257680           0.026622    0.012919    7.813909
   539 O2    c     17.242689           0.058461    0.009844    7.829317
   540 O2    c     17.230849           0.027086   -0.024670    7.836420
   541 O2    c     17.236649          -0.029080   -0.021351    7.828481
   542 O2    c     17.250956          -0.054917   -0.016603    7.813263
   543 O176  c     16.853992          -0.933796   -4.225348   -3.246332
   544 O170  c     14.835539           4.728434   -0.602687    0.267311
   545 O176  c     18.722187          -0.929413    3.043294   -1.240955
   546 O170  c     14.649834          -4.653231    0.183067    1.144869
   547 O176  c     16.554162          -4.508176    1.075154   -2.619958
   548 O170  c     14.794031          -0.124193   -4.527862    0.307666
   549 O176  c     16.099078           4.423713    0.263456   -2.880643
   550 O170  c     14.627782           0.581325    4.901321    0.866248
   551 O171  c     25.480530          -0.148690    0.005538    0.060992
   552 O171  c     25.553099          -0.063904    0.121233   -0.036118
   553 O170  c     14.534724           1.883939    2.624554   -3.510149
   554 O170  c     14.603741           3.268766    2.370913    2.639647
   555 O170  c     14.388631          -2.681022   -2.416923    3.404134
   556 O170  c     14.416394          -2.510714   -2.802154   -3.370859
   557 O170  c     14.406118          -2.560111    2.310478    3.542273
   558 O170  c     14.564063           3.263264   -2.456949    2.613880
   559 O170  c     14.555992           1.808166   -2.622895   -3.488160
   560 O170  c     14.447040          -2.545419    2.842606   -3.255964
   561 O170  c     14.757826          -0.142463   -4.721139   -0.585817
   562 O173  c      8.937084           7.595244    0.045690   -3.653493
   563 O170  c     14.764414           0.004369    4.687477   -0.619079
   564 O172  c     10.945722          -7.138200    0.059932   -1.126758
   565 H21   c     -6.494190          -2.185216   -0.161730    7.553257
   566 O170  c     14.751639          -4.701784    0.039675   -0.738334
   567 O172  c     10.921375          -0.119422   -7.176690   -0.844121
   568 H21   c     -6.517084           0.423287   -1.891749    7.624288
   569 O170  c     14.729865           4.817183   -0.067782   -0.428887
   570 O173  c      8.911638          -0.155168    7.449307   -3.941441
   571 O170  c     14.520564           2.731436   -2.069778   -3.338225
   572 O170  c     14.501241           2.721807   -3.193587    2.636797
   573 O170  c     14.500546          -1.764581    2.209890    4.068965
   574 O170  c     14.534623          -3.159143    2.594502   -2.787795
   575 O170  c     14.497002           2.639331    3.056707    2.734204
   576 O170  c     14.510092          -1.760540   -2.259841    4.115428
   577 O170  c     14.572142          -3.249157   -2.554301   -2.730849
   578 O170  c     14.517910           2.711254    2.153430   -3.284110
   579 C912  c      1.349388           0.442372    0.698441   -1.140343
   580 C912  c      0.836529          -0.504410    0.065239    1.087675
   581 C912  c      1.499874           0.631721   -0.675247   -1.359745
   582 C912  c      0.930224           0.881164   -0.030613    0.934008
   583 C912  c      0.987186           0.522962   -0.361019   -1.207219
   584 C912  c      1.113088          -0.302733    0.582554    0.928338
   585 C912  c      0.954091          -0.885415   -0.230653   -1.045740
   586 C912  c      1.188577          -0.291589   -0.833355    0.818469
   587 C916  c    -15.306583          -2.055351   -2.212929    5.191759
   588 C913  c    -17.667300          -0.801702   -0.680738   -6.815431
   589 C916  c    -16.695248           0.466352    0.826470    6.086725
   590 C913  c    -17.538866           2.615557    0.250658   -6.507610
   591 C902  c      1.917771           1.478812    0.318187   -3.918843
   592 C902  c      1.076317           0.643220    0.282531    3.657282
   593 C902  c      1.286517          -0.530826   -0.704543   -3.872324
   594 C902  c      1.246507          -1.255614   -0.258354    3.302502
   595 C912  c      0.888495          -1.030746    0.421677    0.609596
   596 C912  c      0.875235           0.276433   -1.175495   -0.370193
   597 C912  c      0.922766          -0.304563    1.176706   -0.491816
   598 C912  c      0.915424           1.120200   -0.364670    0.558987
   599 C912  c      0.899342          -0.306750   -1.180941   -0.490288
   600 C912  c      0.898799           0.278112    1.181260   -0.389374
   601 C912  c      0.869624          -1.022552   -0.429627    0.619492
   602 C912  c      0.924173           1.126088    0.362636    0.529623
   603 C912  c      1.097560          -0.047090    0.678370   -0.926877
   604 C912  c      1.277488          -0.569650   -0.028532    1.264910
   605 C912  c      1.046715          -0.062122   -0.648044   -0.957814
   606 C912  c      1.410189           0.566238   -0.036826    1.398247
   607 C912  c      1.120193           0.715906    0.010600   -0.898570
   608 C912  c      1.384904           0.086448    0.618199    1.372313
   609 C912  c      1.065752          -0.612366    0.018988   -0.975331
   610 C912  c      1.251641           0.069997   -0.519072    1.281990
   611 C912  c      0.890726           0.317499    1.164928    0.490347
   612 C912  c      0.902436          -1.093349   -0.382107   -0.542063
   613 C912  c      0.892568           1.056455    0.435209   -0.621062
   614 C912  c      0.928044          -0.261760   -1.216425    0.379929
   615 C912  c      0.897245          -1.103952    0.387140   -0.555613
   616 C912  c      0.916327           1.047609   -0.433036   -0.630219
   617 C912  c      0.911767          -0.273032    1.204983    0.379867
   618 C912  c      0.910906           0.307756   -1.176436    0.471347
   619 C913  c    -17.682615           4.680409   -5.368962   -0.694677
   620 C913  c    -17.682011          -4.599659    5.412984   -0.468471
   621 C913  c    -17.679481           4.707545    5.320402   -0.720336
   622 C913  c    -17.672841          -4.633489   -5.398062   -0.400466
   623 C913  c    -17.577927           0.413230    0.014930    6.934380
   624 C914  c    -14.448685           0.742138    0.099035   -4.491237
   625 C913  c    -17.589243          -0.231316   -0.132107    6.968120
   626 C914  c    -14.473577          -0.255129    0.568033   -4.510182
   627 C913  c    -17.644858          -4.570167   -5.452039    0.387315
   628 C913  c    -17.656349           4.721228    5.278220    0.661273
   629 C913  c    -17.652969           4.660259   -5.322981    0.652343
   630 C913  c    -17.626952          -4.571593    5.442473    0.471457
   631 C902  c      1.014762          -2.265307    2.682760    0.247503
   632 C902  c      1.023362           2.362134   -2.654059    0.272980
   633 C902  c      0.997945          -2.267449   -2.690866    0.251765
   634 C902  c      1.039199           2.363294    2.653995    0.212720
   635 C902  c      1.214424          -0.214298    0.005383   -3.596746
   636 C902  c      1.973490          -0.064053   -0.104368    4.377385
   637 C902  c      1.228839           0.145189    0.064127   -3.590785
   638 C902  c      1.947933           0.253741    0.104234    4.369590
   639 C902  c      1.011560           2.296447    2.684731   -0.190687
   640 C902  c      1.045655          -2.324677   -2.685753   -0.291888
   641 C902  c      1.040040          -2.341334    2.679674   -0.316720
   642 C902  c      1.032061           2.282343   -2.690356   -0.223460
   643 H915  c     -1.678963          -0.122729    0.287213    0.147344
   644 H915  c     -2.172028          -0.613225   -0.046550   -0.247858
   645 H915  c     -1.124628           0.270122   -0.429785   -0.425136
   646 H915  c     -2.011099           0.481003   -0.124632   -0.312272
   647 H915  c     -1.859545           0.736287   -0.215788    0.070704
   648 H915  c     -1.958131           0.162515    0.509405   -0.288301
   649 H915  c     -1.898720          -0.485627   -0.100246    0.053629
   650 H915  c     -1.771188           0.125745   -0.502041   -0.291619
   651 H915  c     -2.049868          -0.100308   -0.455131    0.364085
   652 H915  c     -2.074453          -0.465044   -0.099253   -0.348599
   653 H915  c     -1.967409           0.349432    0.117549   -0.395243
   654 H915  c     -1.983849           0.167150    0.429783    0.314209
   655 H915  c     -1.987976           0.339624   -0.133406   -0.376941
   656 H915  c     -2.040703          -0.456169    0.101883   -0.352743
   657 H915  c     -2.068302          -0.090466    0.459995    0.380245
   658 H915  c     -1.984252           0.167574   -0.437545    0.303889
   659 H915  c     -1.939116           0.028344    0.504550    0.327373
   660 H915  c     -1.802107          -0.243765    0.000813   -0.174323
   661 H915  c     -1.990329           0.015658   -0.487497    0.289458
   662 H915  c     -1.528603           0.266954   -0.006159    0.048622
   663 H915  c     -1.915324           0.493166   -0.012593    0.349038
   664 H915  c     -1.555381           0.004269    0.267550    0.037394
   665 H915  c     -1.974684          -0.506121   -0.005847    0.286283
   666 H915  c     -1.830926          -0.012242   -0.246300   -0.163765
   667 H915  c     -2.016870          -0.392134    0.096397    0.401599
   668 H915  c     -2.033587          -0.131492    0.472028   -0.316562
   669 H915  c     -2.009782           0.140612   -0.381446   -0.363805
   670 H915  c     -1.976595           0.417255   -0.145978    0.339953
   671 H915  c     -2.023995          -0.148195   -0.443079   -0.309690
   672 H915  c     -1.989994           0.127925    0.396240   -0.371243
   673 H915  c     -2.003205           0.430167    0.129693    0.357367
   674 H915  c     -1.995084          -0.385986   -0.109119    0.388122
   675 Zn172 c    -20.935764          -0.046323   -0.398079    0.059550
   676 Zn172 c    -21.099682          -0.450956   -0.011972    0.382804
   677 Zn172 c    -20.754101           0.500958    0.066765    0.066873
   678 Zn172 c    -20.934191          -0.079733    0.405807    0.073755
   679 Zn172 c    -20.854509           0.348865    0.039527   -0.128488
   680 Zn172 c    -20.892519          -0.280893    0.464099   -0.223054
   681 Zn172 c    -20.877064          -0.583757    0.013546   -0.084062
   682 Zn172 c    -20.792069          -0.201824   -0.285640   -0.271449
-------------------------------------------------------------------------------

  Total time to end of lattice properties =    8116.1897 s


  Peak dynamic memory used =      87.25 MB 


  Timing analysis for GULP :

--------------------------------------------------------------------------------
  Task / Subroutine                                          Time (Seconds)
--------------------------------------------------------------------------------
  Calculation of reciprocal space energy and derivatives       1608.5959
  Calculation of real space energy and derivatives             5878.8691
  Calculation of three-body energy and derivatives               11.6239
  Calculation of four-body energy and derivatives                12.2819
  Calculation of molecules and connectivity                       0.4259
  Calculation of phonons                                         14.6839
  Calculation of scattering                                       0.0000
  Calculation of matrix inversion                               565.4553
  Symmetry generation of equivalent positions                     0.0050
  Global summation overhead                                       0.0255
--------------------------------------------------------------------------------
  Total CPU time                                               8116.1898
--------------------------------------------------------------------------------


  Dump file written as fit1.res                                                


  Job Finished at 18:23.42 17th May        2016                               

