********************************************************************************
*                       GENERAL UTILITY LATTICE PROGRAM                        *
*                                 Julian Gale                                  *
*                      Nanochemistry Research Institute                        *
*                           Department of Chemistry                            *
*                    Curtin University, Western Australia                      *
********************************************************************************
* Version = 4.4.0 * Last modified = 31st March 2015                            *
********************************************************************************
*  optimise     - perform optimisation run                                     *
*  conv         - constant volume calculation                                  *
*  property     - calculate properties for final geometry                      *
*  phonon       - calculate phonons for final geometry                         *
*  potential    - calculate electrostatic site potentials                      *
*  molmec       - molecule option activated, Coulomb subtract 1-2/1-3 terms    *
*  fix_molecule - fix atoms of molecule as at the start of the run             *
*  compare      - compare initial and final structures                         *
********************************************************************************

  Job Started  at 21:14.33 16th May        2016                               

  Number of CPUs =     1


  Total number of configurations input =   1

********************************************************************************
*  Input for Configuration =   1                                               *
********************************************************************************

  Formula = Ti180O446H84C160Zn24                                        

  Number of irreducible atoms/shells =     894


  Total number atoms/shells =     894

  Dimensionality = 3               :  Bulk   



  Cartesian lattice vectors (Angstroms) :

       17.724000    0.000000    0.000000
        0.000000   19.461000    0.000000
        0.000000    0.000000  114.868482

  Cell parameters (Angstroms/Degrees):

  a =      17.7240    alpha =  90.0000
  b =      19.4610    beta  =  90.0000
  c =     114.8685    gamma =  90.0000

  Initial cell volume =       39621.213782 Angs**3

  Temperature of configuration =  0.000     K 

  Pressure of configuration =         0.000 GPa 

  Fractional coordinates of asymmetric unit :

--------------------------------------------------------------------------------
   No.  Atomic       x           y          z         Charge      Occupancy
        Label      (Frac)      (Frac)     (Frac)        (e)         (Frac)  
--------------------------------------------------------------------------------
      1 Ti    c    0.320000    0.733333    0.339268     2.43600    1.000000    
      2 Ti    c    0.148783 *  0.399280 *  0.341320 *   2.43600    1.000000    
      3 Ti    c    0.981999 *  0.399822 *  0.341320 *   2.43600    1.000000    
      4 Ti    c    0.815070 *  0.399939 *  0.341392 *   2.43600    1.000000    
      5 Ti    c    0.650200 *  0.399590 *  0.339843 *   2.43600    1.000000    
      6 Ti    c    0.481079 *  0.400011 *  0.339984 *   2.43600    1.000000    
      7 Ti    c    0.316098 *  0.399488 *  0.341363 *   2.43600    1.000000    
      8 Ti    c    0.148641 *  0.065894 *  0.340812 *   2.43600    1.000000    
      9 Ti    c    0.982193 *  0.065942 *  0.341276 *   2.43600    1.000000    
     10 Ti    c    0.815558 *  0.066295 *  0.341295 *   2.43600    1.000000    
     11 Ti    c    0.648919 *  0.065818 *  0.341223 *   2.43600    1.000000    
     12 Ti    c    0.481859 *  0.065951 *  0.341239 *   2.43600    1.000000    
     13 Ti    c    0.315432 *  0.065856 *  0.341249 *   2.43600    1.000000    
     14 Ti    c    0.143898 *  0.733417 *  0.338652 *   2.43600    1.000000    
     15 Ti    c    0.981359 *  0.733220 *  0.341407 *   2.43600    1.000000    
     16 Ti    c    0.815520 *  0.732761 *  0.341387 *   2.43600    1.000000    
     17 Ti    c    0.649130 *  0.732084 *  0.341384 *   2.43600    1.000000    
     18 Ti    c    0.483032 *  0.731873 *  0.341465 *   2.43600    1.000000    
     19 Ti    c    0.065428 *  0.232319 *  0.339124 *   2.43600    1.000000    
     20 Ti    c    0.898503 *  0.232938 *  0.339151 *   2.43600    1.000000    
     21 Ti    c    0.731729 *  0.233526 *  0.339080 *   2.43600    1.000000    
     22 Ti    c    0.899642 *  0.899396 *  0.339146 *   2.43600    1.000000    
     23 Ti    c    0.565086 *  0.898391 *  0.339150 *   2.43600    1.000000    
     24 Ti    c    0.397845 *  0.899352 *  0.339162 *   2.43600    1.000000    
     25 Ti    c    0.898560 *  0.566430 *  0.339033 *   2.43600    1.000000    
     26 Ti    c    0.565467 *  0.564965 *  0.340453 *   2.43600    1.000000    
     27 Ti    c    0.398967 *  0.567060 *  0.338867 *   2.43600    1.000000    
     28 Ti    c    0.232494 *  0.231979 *  0.339091 *   2.43600    1.000000    
     29 Ti    c    0.565525 *  0.230828 *  0.339382 *   2.43600    1.000000    
     30 Ti    c    0.399280 *  0.233482 *  0.339110 *   2.43600    1.000000    
     31 Ti    c    0.231047 *  0.900908 *  0.340596 *   2.43600    1.000000    
     32 Ti    c    0.066131 *  0.899860 *  0.340699 *   2.43600    1.000000    
     33 Ti    c    0.732402 *  0.899273 *  0.339189 *   2.43600    1.000000    
     34 Ti    c    0.232395 *  0.563959 *  0.338656 *   2.43600    1.000000    
     35 Ti    c    0.065455 *  0.567356 *  0.339047 *   2.43600    1.000000    
     36 Ti    c    0.731969 *  0.566608 *  0.338844 *   2.43600    1.000000    
     37 Ti    c    0.315475 *  0.566181 *  0.311578 *   2.43600    1.000000    
     38 Ti    c    0.148831 *  0.232844 *  0.311972 *   2.43600    1.000000    
     39 Ti    c    0.982077 *  0.232907 *  0.311974 *   2.43600    1.000000    
     40 Ti    c    0.815535 *  0.232772 *  0.311903 *   2.43600    1.000000    
     41 Ti    c    0.648758 *  0.232567 *  0.312022 *   2.43600    1.000000    
     42 Ti    c    0.482248 *  0.232562 *  0.312030 *   2.43600    1.000000    
     43 Ti    c    0.315482 *  0.232773 *  0.311880 *   2.43600    1.000000    
     44 Ti    c    0.148717 *  0.899727 *  0.313401 *   2.43600    1.000000    
     45 Ti    c    0.982315 *  0.899598 *  0.312461 *   2.43600    1.000000    
     46 Ti    c    0.815399 *  0.899411 *  0.311988 *   2.43600    1.000000    
     47 Ti    c    0.648836 *  0.899194 *  0.312018 *   2.43600    1.000000    
     48 Ti    c    0.482285 *  0.899260 *  0.311932 *   2.43600    1.000000    
     49 Ti    c    0.315276 *  0.899560 *  0.312456 *   2.43600    1.000000    
     50 Ti    c    0.148600 *  0.566131 *  0.311741 *   2.43600    1.000000    
     51 Ti    c    0.982034 *  0.566097 *  0.311837 *   2.43600    1.000000    
     52 Ti    c    0.815657 *  0.566272 *  0.311752 *   2.43600    1.000000    
     53 Ti    c    0.648500 *  0.565820 *  0.312421 *   2.43600    1.000000    
     54 Ti    c    0.482607 *  0.565761 *  0.312391 *   2.43600    1.000000    
     55 Ti    c    0.400485 *  0.732420 *  0.312184 *   2.43600    1.000000    
     56 Ti    c    0.231967 *  0.399446 *  0.312707 *   2.43600    1.000000    
     57 Ti    c    0.065501 *  0.399300 *  0.312735 *   2.43600    1.000000    
     58 Ti    c    0.899035 *  0.399521 *  0.312738 *   2.43600    1.000000    
     59 Ti    c    0.733014 *  0.399104 *  0.312398 *   2.43600    1.000000    
     60 Ti    c    0.565443 *  0.399102 *  0.312397 *   2.43600    1.000000    
     61 Ti    c    0.398061 *  0.398892 *  0.312416 *   2.43600    1.000000    
     62 Ti    c    0.232291 *  0.066259 *  0.312721 *   2.43600    1.000000    
     63 Ti    c    0.065336 *  0.066291 *  0.312733 *   2.43600    1.000000    
     64 Ti    c    0.898760 *  0.066168 *  0.312773 *   2.43600    1.000000    
     65 Ti    c    0.732140 *  0.065903 *  0.312752 *   2.43600    1.000000    
     66 Ti    c    0.565463 *  0.065889 *  0.312740 *   2.43600    1.000000    
     67 Ti    c    0.398835 *  0.066045 *  0.312747 *   2.43600    1.000000    
     68 Ti    c    0.232288 *  0.733027 *  0.312246 *   2.43600    1.000000    
     69 Ti    c    0.063574 *  0.732934 *  0.312072 *   2.43600    1.000000    
     70 Ti    c    0.898295 *  0.732891 *  0.312752 *   2.43600    1.000000    
     71 Ti    c    0.732155 *  0.732481 *  0.312784 *   2.43600    1.000000    
     72 Ti    c    0.565998 *  0.732448 *  0.312824 *   2.43600    1.000000    
     73 Ti    c    0.315511 *  0.732721 *  0.284599 *   2.43600    1.000000    
     74 Ti    c    0.148754 *  0.399430 *  0.284856 *   2.43600    1.000000    
     75 Ti    c    0.982212 *  0.399421 *  0.284869 *   2.43600    1.000000    
     76 Ti    c    0.815650 *  0.399381 *  0.284810 *   2.43600    1.000000    
     77 Ti    c    0.648827 *  0.399345 *  0.284673 *   2.43600    1.000000    
     78 Ti    c    0.482152 *  0.399341 *  0.284671 *   2.43600    1.000000    
     79 Ti    c    0.315350 *  0.399388 *  0.284801 *   2.43600    1.000000    
     80 Ti    c    0.148804 *  0.066044 *  0.284977 *   2.43600    1.000000    
     81 Ti    c    0.982150 *  0.066037 *  0.285002 *   2.43600    1.000000    
     82 Ti    c    0.815461 *  0.066022 *  0.284968 *   2.43600    1.000000    
     83 Ti    c    0.648813 *  0.066024 *  0.284930 *   2.43600    1.000000    
     84 Ti    c    0.482164 *  0.065983 *  0.284951 *   2.43600    1.000000    
     85 Ti    c    0.315482 *  0.066002 *  0.284990 *   2.43600    1.000000    
     86 Ti    c    0.148800 *  0.732822 *  0.284520 *   2.43600    1.000000    
     87 Ti    c    0.981822 *  0.732807 *  0.284751 *   2.43600    1.000000    
     88 Ti    c    0.815344 *  0.732705 *  0.284948 *   2.43600    1.000000    
     89 Ti    c    0.648846 *  0.732648 *  0.284937 *   2.43600    1.000000    
     90 Ti    c    0.482506 *  0.732676 *  0.284788 *   2.43600    1.000000    
     91 Ti    c    0.399294 *  0.566000 *  0.284870 *   2.43600    1.000000    
     92 Ti    c    0.232108 *  0.232668 *  0.284893 *   2.43600    1.000000    
     93 Ti    c    0.065484 *  0.232730 *  0.284916 *   2.43600    1.000000    
     94 Ti    c    0.898861 *  0.232697 *  0.284902 *   2.43600    1.000000    
     95 Ti    c    0.732114 *  0.232723 *  0.284899 *   2.43600    1.000000    
     96 Ti    c    0.565482 *  0.232690 *  0.284920 *   2.43600    1.000000    
     97 Ti    c    0.398872 *  0.232716 *  0.284900 *   2.43600    1.000000    
     98 Ti    c    0.231700 *  0.899366 *  0.285432 *   2.43600    1.000000    
     99 Ti    c    0.065879 *  0.899406 *  0.285441 *   2.43600    1.000000    
    100 Ti    c    0.899147 *  0.899400 *  0.285107 *   2.43600    1.000000    
    101 Ti    c    0.732208 *  0.899370 *  0.284963 *   2.43600    1.000000    
    102 Ti    c    0.565484 *  0.899333 *  0.284946 *   2.43600    1.000000    
    103 Ti    c    0.398449 *  0.899312 *  0.285072 *   2.43600    1.000000    
    104 Ti    c    0.232134 *  0.566060 *  0.284698 *   2.43600    1.000000    
    105 Ti    c    0.065362 *  0.566173 *  0.284754 *   2.43600    1.000000    
    106 Ti    c    0.898727 *  0.566002 *  0.284800 *   2.43600    1.000000    
    107 Ti    c    0.731802 *  0.565941 *  0.284946 *   2.43600    1.000000    
    108 Ti    c    0.565558 *  0.565912 *  0.285098 *   2.43600    1.000000    
    109 Ti    c    0.315603 *  0.566046 *  0.257725 *   2.43600    1.000000    
    110 Ti    c    0.148813 *  0.232719 *  0.257861 *   2.43600    1.000000    
    111 Ti    c    0.982158 *  0.232710 *  0.257863 *   2.43600    1.000000    
    112 Ti    c    0.815490 *  0.232700 *  0.257851 *   2.43600    1.000000    
    113 Ti    c    0.648812 *  0.232687 *  0.257849 *   2.43600    1.000000    
    114 Ti    c    0.482159 *  0.232692 *  0.257850 *   2.43600    1.000000    
    115 Ti    c    0.315492 *  0.232709 *  0.257846 *   2.43600    1.000000    
    116 Ti    c    0.148817 *  0.899374 *  0.258239 *   2.43600    1.000000    
    117 Ti    c    0.982333 *  0.899378 *  0.258130 *   2.43600    1.000000    
    118 Ti    c    0.815597 *  0.899388 *  0.257971 *   2.43600    1.000000    
    119 Ti    c    0.648824 *  0.899389 *  0.257908 *   2.43600    1.000000    
    120 Ti    c    0.482035 *  0.899375 *  0.257940 *   2.43600    1.000000    
    121 Ti    c    0.315285 *  0.899370 *  0.258098 *   2.43600    1.000000    
    122 Ti    c    0.148810 *  0.566055 *  0.257693 *   2.43600    1.000000    
    123 Ti    c    0.982092 *  0.566060 *  0.257741 *   2.43600    1.000000    
    124 Ti    c    0.815376 *  0.566035 *  0.257815 *   2.43600    1.000000    
    125 Ti    c    0.648749 *  0.566031 *  0.257916 *   2.43600    1.000000    
    126 Ti    c    0.482273 *  0.566042 *  0.257880 *   2.43600    1.000000    
    127 Ti    c    0.398968 *  0.732735 *  0.256966 *   2.43600    1.000000    
    128 Ti    c    0.232106 *  0.399379 *  0.257007 *   2.43600    1.000000    
    129 Ti    c    0.065476 *  0.399374 *  0.257034 *   2.43600    1.000000    
    130 Ti    c    0.898864 *  0.399381 *  0.257022 *   2.43600    1.000000    
    131 Ti    c    0.732228 *  0.399361 *  0.256979 *   2.43600    1.000000    
    132 Ti    c    0.565493 *  0.399356 *  0.256946 *   2.43600    1.000000    
    133 Ti    c    0.398756 *  0.399370 *  0.256967 *   2.43600    1.000000    
    134 Ti    c    0.232135 *  0.066042 *  0.257183 *   2.43600    1.000000    
    135 Ti    c    0.065492 *  0.066026 *  0.257190 *   2.43600    1.000000    
    136 Ti    c    0.898861 *  0.066013 *  0.257166 *   2.43600    1.000000    
    137 Ti    c    0.732179 *  0.066021 *  0.257134 *   2.43600    1.000000    
    138 Ti    c    0.565462 *  0.066008 *  0.257127 *   2.43600    1.000000    
    139 Ti    c    0.398770 *  0.066007 *  0.257153 *   2.43600    1.000000    
    140 Ti    c    0.232181 *  0.732717 *  0.256898 *   2.43600    1.000000    
    141 Ti    c    0.065326 *  0.732735 *  0.256946 *   2.43600    1.000000    
    142 Ti    c    0.898669 *  0.732740 *  0.257047 *   2.43600    1.000000    
    143 Ti    c    0.732140 *  0.732723 *  0.257106 *   2.43600    1.000000    
    144 Ti    c    0.565606 *  0.732743 *  0.257061 *   2.43600    1.000000    
    145 Ti    c    0.398951 *  0.566080 *  0.230627 *   2.43600    1.000000    
    146 Ti    c    0.315507 *  0.732833 *  0.228422 *   2.43600    1.000000    
    147 Ti    c    0.232141 *  0.232645 *  0.230687 *   2.43600    1.000000    
    148 Ti    c    0.148805 *  0.399351 *  0.228479 *   2.43600    1.000000    
    149 Ti    c    0.065488 *  0.232654 *  0.230695 *   2.43600    1.000000    
    150 Ti    c    0.982145 *  0.399352 *  0.228487 *   2.43600    1.000000    
    151 Ti    c    0.898836 *  0.232661 *  0.230690 *   2.43600    1.000000    
    152 Ti    c    0.815491 *  0.399354 *  0.228468 *   2.43600    1.000000    
    153 Ti    c    0.732164 *  0.232658 *  0.230678 *   2.43600    1.000000    
    154 Ti    c    0.648834 *  0.399353 *  0.228436 *   2.43600    1.000000    
    155 Ti    c    0.565485 *  0.232667 *  0.230673 *   2.43600    1.000000    
    156 Ti    c    0.482164 *  0.399355 *  0.228429 *   2.43600    1.000000    
    157 Ti    c    0.398813 *  0.232665 *  0.230677 *   2.43600    1.000000    
    158 Ti    c    0.315481 *  0.399356 *  0.228455 *   2.43600    1.000000    
    159 Ti    c    0.232040 *  0.899398 *  0.230944 *   2.43600    1.000000    
    160 Ti    c    0.148809 *  0.065952 *  0.228656 *   2.43600    1.000000    
    161 Ti    c    0.065564 *  0.899392 *  0.230960 *   2.43600    1.000000    
    162 Ti    c    0.982196 *  0.065955 *  0.228647 *   2.43600    1.000000    
    163 Ti    c    0.898968 *  0.899403 *  0.230855 *   2.43600    1.000000    
    164 Ti    c    0.815536 *  0.065968 *  0.228613 *   2.43600    1.000000    
    165 Ti    c    0.732229 *  0.899403 *  0.230765 *   2.43600    1.000000    
    166 Ti    c    0.648828 *  0.065976 *  0.228590 *   2.43600    1.000000    
    167 Ti    c    0.565442 *  0.899392 *  0.230749 *   2.43600    1.000000    
    168 Ti    c    0.482115 *  0.065965 *  0.228603 *   2.43600    1.000000    
    169 Ti    c    0.398666 *  0.899400 *  0.230823 *   2.43600    1.000000    
    170 Ti    c    0.315437 *  0.065956 *  0.228638 *   2.43600    1.000000    
    171 Ti    c    0.232200 *  0.566094 *  0.230548 *   2.43600    1.000000    
    172 Ti    c    0.148790 *  0.732846 *  0.228410 *   2.43600    1.000000    
    173 Ti    c    0.065434 *  0.566095 *  0.230558 *   2.43600    1.000000    
    174 Ti    c    0.982104 *  0.732843 *  0.228479 *   2.43600    1.000000    
    175 Ti    c    0.898725 *  0.566078 *  0.230615 *   2.43600    1.000000    
    176 Ti    c    0.815462 *  0.732819 *  0.228550 *   2.43600    1.000000    
    177 Ti    c    0.732072 *  0.566078 *  0.230687 *   2.43600    1.000000    
    178 Ti    c    0.648842 *  0.732806 *  0.228554 *   2.43600    1.000000    
    179 Ti    c    0.565528 *  0.566075 *  0.230708 *   2.43600    1.000000    
    180 Ti    c    0.482200 *  0.732818 *  0.228493 *   2.43600    1.000000    
    181 O2    c    0.394517 *  0.730355 *  0.349533 *  -1.21800    1.000000    
    182 O2    c    0.232725 *  0.402883 *  0.350045 *  -1.21800    1.000000    
    183 O2    c    0.065541 *  0.400534 *  0.350070 *  -1.21800    1.000000    
    184 O2    c    0.898324 *  0.400529 *  0.350119 *  -1.21800    1.000000    
    185 O2    c    0.728087 *  0.400462 *  0.349784 *  -1.21800    1.000000    
    186 O3    c    0.566705 *  0.232630 *  0.356059 *  -0.33800    1.000000    
    187 H22   c    0.566427 *  0.203894 *  0.362910 *   0.12000    1.000000    
    188 O2    c    0.402554 *  0.400722 *  0.349802 *  -1.21800    1.000000    
    189 O2    c    0.231454 *  0.067869 *  0.349792 *  -1.21800    1.000000    
    190 O2    c    0.066199 *  0.069327 *  0.349820 *  -1.21800    1.000000    
    191 O2    c    0.898664 *  0.068727 *  0.350049 *  -1.21800    1.000000    
    192 O2    c    0.731997 *  0.065875 *  0.350024 *  -1.21800    1.000000    
    193 O2    c    0.565426 *  0.067908 *  0.349944 *  -1.21800    1.000000    
    194 O2    c    0.398863 *  0.066942 *  0.350037 *  -1.21800    1.000000    
    195 O3    c    0.231083 *  0.733503 *  0.349824 *  -0.33800    1.000000    
    196 H22   c    0.227182 *  0.746394 *  0.357941 *   0.12000    1.000000    
    197 O2    c    0.070840 *  0.728031 *  0.349167 *  -1.21800    1.000000    
    198 O2    c    0.898894 *  0.730332 *  0.350228 *  -1.21800    1.000000    
    199 O2    c    0.732334 *  0.733134 *  0.350146 *  -1.21800    1.000000    
    200 O2    c    0.565579 *  0.733369 *  0.350209 *  -1.21800    1.000000    
    201 O2    c    0.149068 *  0.172986 *  0.340293 *  -1.21800    1.000000    
    202 O2    c    0.981459 *  0.173163 *  0.340507 *  -1.21800    1.000000    
    203 O2    c    0.814679 *  0.173020 *  0.340518 *  -1.21800    1.000000    
    204 O2    c    0.650191 *  0.172211 *  0.340270 *  -1.21800    1.000000    
    205 O2    c    0.481015 *  0.172413 *  0.340274 *  -1.21800    1.000000    
    206 O2    c    0.316475 *  0.173138 *  0.340554 *  -1.21800    1.000000    
    207 O2    c    0.150964 *  0.831096 *  0.338698 *  -1.21800    1.000000    
    208 O2    c    0.980017 *  0.836054 *  0.340493 *  -1.21800    1.000000    
    209 O2    c    0.815693 *  0.838400 *  0.340708 *  -1.21800    1.000000    
    210 O2    c    0.648804 *  0.838388 *  0.340625 *  -1.21800    1.000000    
    211 O2    c    0.480876 *  0.837560 *  0.340798 *  -1.21800    1.000000    
    212 O2    c    0.316682 *  0.833761 *  0.340186 *  -1.21800    1.000000    
    213 O2    c    0.982350 *  0.505977 *  0.340504 *  -1.21800    1.000000    
    214 O2    c    0.477246 *  0.502001 *  0.338856 *  -1.21800    1.000000    
    215 O2    c    0.316248 *  0.506362 *  0.340548 *  -1.21800    1.000000    
    216 O2    c    0.148266 *  0.506870 *  0.340522 *  -1.21800    1.000000    
    217 O2    c    0.815378 *  0.505193 *  0.340592 *  -1.21800    1.000000    
    218 O2    c    0.653317 *  0.501548 *  0.338913 *  -1.21800    1.000000    
    219 O2    c    0.312519 *  0.629189 *  0.340495 *  -1.21800    1.000000    
    220 O2    c    0.149462 *  0.294027 *  0.340708 *  -1.21800    1.000000    
    221 O2    c    0.982140 *  0.294155 *  0.340646 *  -1.21800    1.000000    
    222 O2    c    0.814891 *  0.294303 *  0.340838 *  -1.21800    1.000000    
    223 O2    c    0.647486 *  0.295910 *  0.340438 *  -1.21800    1.000000    
    224 O2    c    0.483413 *  0.296042 *  0.340500 *  -1.21800    1.000000    
    225 O2    c    0.315650 *  0.294408 *  0.340847 *  -1.21800    1.000000    
    226 O2    c    0.979386 *  0.961794 *  0.340379 *  -1.21800    1.000000    
    227 O2    c    0.482416 *  0.959393 *  0.340683 *  -1.21800    1.000000    
    228 O2    c    0.318112 *  0.960767 *  0.340403 *  -1.21800    1.000000    
    229 O2    c    0.152291 *  0.629069 *  0.340161 *  -1.21800    1.000000    
    230 O2    c    0.982309 *  0.626828 *  0.340611 *  -1.21800    1.000000    
    231 O2    c    0.815448 *  0.626666 *  0.340551 *  -1.21800    1.000000    
    232 O2    c    0.650125 *  0.626917 *  0.340570 *  -1.21800    1.000000    
    233 O2    c    0.480021 *  0.627333 *  0.340656 *  -1.21800    1.000000    
    234 O2    c    0.148961 *  0.964242 *  0.338861 *  -1.21800    1.000000    
    235 O2    c    0.815348 *  0.960065 *  0.340672 *  -1.21800    1.000000    
    236 O2    c    0.648303 *  0.959659 *  0.340627 *  -1.21800    1.000000    
    237 O2    c    0.401901 *  0.731273 *  0.328812 *  -1.21800    1.000000    
    238 O2    c    0.232341 *  0.400635 *  0.329405 *  -1.21800    1.000000    
    239 O2    c    0.065891 *  0.399670 *  0.329384 *  -1.21800    1.000000    
    240 O2    c    0.898828 *  0.399653 *  0.329407 *  -1.21800    1.000000    
    241 O2    c    0.734354 *  0.396805 *  0.329022 *  -1.21800    1.000000    
    242 O2    c    0.565317 *  0.396726 *  0.329478 *  -1.21800    1.000000    
    243 O2    c    0.396587 *  0.396944 *  0.329058 *  -1.21800    1.000000    
    244 O2    c    0.234008 *  0.069376 *  0.329162 *  -1.21800    1.000000    
    245 O2    c    0.063988 *  0.069374 *  0.329162 *  -1.21800    1.000000    
    246 O2    c    0.897685 *  0.066908 *  0.329328 *  -1.21800    1.000000    
    247 O2    c    0.731994 *  0.065601 *  0.329340 *  -1.21800    1.000000    
    248 O2    c    0.565437 *  0.065736 *  0.329326 *  -1.21800    1.000000    
    249 O2    c    0.399547 *  0.066011 *  0.329309 *  -1.21800    1.000000    
    250 O2    c    0.233604 *  0.729336 *  0.329899 *  -1.21800    1.000000    
    251 O2    c    0.060771 *  0.729168 *  0.328562 *  -1.21800    1.000000    
    252 O2    c    0.897786 *  0.731906 *  0.329407 *  -1.21800    1.000000    
    253 O2    c    0.732271 *  0.732429 *  0.329417 *  -1.21800    1.000000    
    254 O2    c    0.565499 *  0.733317 *  0.329487 *  -1.21800    1.000000    
    255 O2    c    0.396055 *  0.568270 *  0.322683 *  -1.21800    1.000000    
    256 O2    c    0.232673 *  0.233761 *  0.322819 *  -1.21800    1.000000    
    257 O2    c    0.065463 *  0.233714 *  0.322832 *  -1.21800    1.000000    
    258 O2    c    0.898400 *  0.233661 *  0.322856 *  -1.21800    1.000000    
    259 O2    c    0.732277 *  0.234024 *  0.322824 *  -1.21800    1.000000    
    260 O2    c    0.565483 *  0.232969 *  0.322950 *  -1.21800    1.000000    
    261 O2    c    0.398638 *  0.234155 *  0.322838 *  -1.21800    1.000000    
    262 O2    c    0.235333 *  0.898852 *  0.323470 *  -1.21800    1.000000    
    263 O2    c    0.062678 *  0.898344 *  0.323528 *  -1.21800    1.000000    
    264 O2    c    0.897116 *  0.899022 *  0.322893 *  -1.21800    1.000000    
    265 O2    c    0.731873 *  0.899304 *  0.322898 *  -1.21800    1.000000    
    266 O2    c    0.565290 *  0.898687 *  0.322880 *  -1.21800    1.000000    
    267 O2    c    0.400508 *  0.898398 *  0.322917 *  -1.21800    1.000000    
    268 O2    c    0.232340 *  0.565730 *  0.322553 *  -1.21800    1.000000    
    269 O2    c    0.066035 *  0.567083 *  0.322773 *  -1.21800    1.000000    
    270 O2    c    0.899106 *  0.566148 *  0.322753 *  -1.21800    1.000000    
    271 O2    c    0.734220 *  0.566984 *  0.322663 *  -1.21800    1.000000    
    272 O2    c    0.565169 *  0.566794 *  0.323340 *  -1.21800    1.000000    
    273 O2    c    0.315037 *  0.667940 *  0.312337 *  -1.21800    1.000000    
    274 O2    c    0.315407 *  0.465115 *  0.312222 *  -1.21800    1.000000    
    275 O2    c    0.148952 *  0.334299 *  0.312431 *  -1.21800    1.000000    
    276 O2    c    0.148932 *  0.132153 *  0.312305 *  -1.21800    1.000000    
    277 O2    c    0.982190 *  0.334256 *  0.312410 *  -1.21800    1.000000    
    278 O2    c    0.981644 *  0.132209 *  0.312280 *  -1.21800    1.000000    
    279 O2    c    0.816037 *  0.333920 *  0.312152 *  -1.21800    1.000000    
    280 O2    c    0.815063 *  0.131923 *  0.312383 *  -1.21800    1.000000    
    281 O2    c    0.648632 *  0.334190 *  0.312397 *  -1.21800    1.000000    
    282 O2    c    0.648758 *  0.131678 *  0.312439 *  -1.21800    1.000000    
    283 O2    c    0.482297 *  0.334203 *  0.312388 *  -1.21800    1.000000    
    284 O2    c    0.482294 *  0.131765 *  0.312411 *  -1.21800    1.000000    
    285 O2    c    0.314905 *  0.334056 *  0.312179 *  -1.21800    1.000000    
    286 O2    c    0.316147 *  0.132130 *  0.312258 *  -1.21800    1.000000    
    287 O2    c    0.148940 *  0.001077 *  0.312644 *  -1.21800    1.000000    
    288 O2    c    0.149060 *  0.796301 *  0.312953 *  -1.21800    1.000000    
    289 O2    c    0.981945 *  0.000914 *  0.312431 *  -1.21800    1.000000    
    290 O2    c    0.981204 *  0.797949 *  0.312156 *  -1.21800    1.000000    
    291 O2    c    0.815228 *  0.000677 *  0.312369 *  -1.21800    1.000000    
    292 O2    c    0.814993 *  0.798052 *  0.312393 *  -1.21800    1.000000    
    293 O2    c    0.648661 *  0.000421 *  0.312420 *  -1.21800    1.000000    
    294 O2    c    0.648900 *  0.798007 *  0.312438 *  -1.21800    1.000000    
    295 O2    c    0.482214 *  0.000400 *  0.312358 *  -1.21800    1.000000    
    296 O2    c    0.482786 *  0.797930 *  0.312148 *  -1.21800    1.000000    
    297 O2    c    0.315836 *  0.000711 *  0.312405 *  -1.21800    1.000000    
    298 O2    c    0.315716 *  0.796628 *  0.312713 *  -1.21800    1.000000    
    299 O2    c    0.149277 *  0.667886 *  0.312503 *  -1.21800    1.000000    
    300 O2    c    0.148813 *  0.465260 *  0.312374 *  -1.21800    1.000000    
    301 O2    c    0.981254 *  0.666722 *  0.311931 *  -1.21800    1.000000    
    302 O2    c    0.982562 *  0.465136 *  0.312415 *  -1.21800    1.000000    
    303 O2    c    0.815582 *  0.667211 *  0.312259 *  -1.21800    1.000000    
    304 O2    c    0.815730 *  0.464877 *  0.312260 *  -1.21800    1.000000    
    305 O2    c    0.648830 *  0.667074 *  0.312510 *  -1.21800    1.000000    
    306 O2    c    0.648612 *  0.463896 *  0.312606 *  -1.21800    1.000000    
    307 O2    c    0.482810 *  0.666843 *  0.312213 *  -1.21800    1.000000    
    308 O2    c    0.481928 *  0.464092 *  0.312592 *  -1.21800    1.000000    
    309 O2    c    0.399874 *  0.565895 *  0.301446 *  -1.21800    1.000000    
    310 O2    c    0.232021 *  0.232984 *  0.301432 *  -1.21800    1.000000    
    311 O2    c    0.065498 *  0.233305 *  0.301463 *  -1.21800    1.000000    
    312 O2    c    0.898878 *  0.232919 *  0.301441 *  -1.21800    1.000000    
    313 O2    c    0.731805 *  0.233022 *  0.301461 *  -1.21800    1.000000    
    314 O2    c    0.565492 *  0.233154 *  0.301513 *  -1.21800    1.000000    
    315 O2    c    0.399235 *  0.233276 *  0.301460 *  -1.21800    1.000000    
    316 O2    c    0.231066 *  0.897976 *  0.302077 *  -1.21800    1.000000    
    317 O2    c    0.066923 *  0.898585 *  0.302075 *  -1.21800    1.000000    
    318 O2    c    0.899324 *  0.899579 *  0.301613 *  -1.21800    1.000000    
    319 O2    c    0.732020 *  0.899369 *  0.301502 *  -1.21800    1.000000    
    320 O2    c    0.565649 *  0.899470 *  0.301484 *  -1.21800    1.000000    
    321 O2    c    0.397890 *  0.898552 *  0.301627 *  -1.21800    1.000000    
    322 O2    c    0.231857 *  0.566904 *  0.301265 *  -1.21800    1.000000    
    323 O2    c    0.065601 *  0.566495 *  0.301347 *  -1.21800    1.000000    
    324 O2    c    0.898866 *  0.565459 *  0.301333 *  -1.21800    1.000000    
    325 O2    c    0.731070 *  0.565332 *  0.301483 *  -1.21800    1.000000    
    326 O2    c    0.565586 *  0.564725 *  0.301748 *  -1.21800    1.000000    
    327 O2    c    0.398384 *  0.732410 *  0.295485 *  -1.21800    1.000000    
    328 O2    c    0.232114 *  0.399817 *  0.295662 *  -1.21800    1.000000    
    329 O2    c    0.065588 *  0.399619 *  0.295703 *  -1.21800    1.000000    
    330 O2    c    0.898946 *  0.399695 *  0.295668 *  -1.21800    1.000000    
    331 O2    c    0.731799 *  0.399415 *  0.295559 *  -1.21800    1.000000    
    332 O2    c    0.565411 *  0.399471 *  0.295557 *  -1.21800    1.000000    
    333 O2    c    0.399101 *  0.399441 *  0.295563 *  -1.21800    1.000000    
    334 O2    c    0.232208 *  0.066232 *  0.295750 *  -1.21800    1.000000    
    335 O2    c    0.065544 *  0.066307 *  0.295755 *  -1.21800    1.000000    
    336 O2    c    0.898602 *  0.066309 *  0.295747 *  -1.21800    1.000000    
    337 O2    c    0.731929 *  0.066157 *  0.295740 *  -1.21800    1.000000    
    338 O2    c    0.565538 *  0.066188 *  0.295739 *  -1.21800    1.000000    
    339 O2    c    0.399046 *  0.066171 *  0.295738 *  -1.21800    1.000000    
    340 O2    c    0.231998 *  0.732657 *  0.295492 *  -1.21800    1.000000    
    341 O2    c    0.066190 *  0.732459 *  0.295435 *  -1.21800    1.000000    
    342 O2    c    0.898859 *  0.732660 *  0.295638 *  -1.21800    1.000000    
    343 O2    c    0.731956 *  0.732522 *  0.295739 *  -1.21800    1.000000    
    344 O2    c    0.565422 *  0.732453 *  0.295704 *  -1.21800    1.000000    
    345 O2    c    0.315587 *  0.501430 *  0.284912 *  -1.21800    1.000000    
    346 O2    c    0.315667 *  0.630760 *  0.284865 *  -1.21800    1.000000    
    347 O2    c    0.148818 *  0.168053 *  0.284900 *  -1.21800    1.000000    
    348 O2    c    0.148879 *  0.297723 *  0.284873 *  -1.21800    1.000000    
    349 O2    c    0.982168 *  0.168039 *  0.284903 *  -1.21800    1.000000    
    350 O2    c    0.982169 *  0.297688 *  0.284879 *  -1.21800    1.000000    
    351 O2    c    0.815379 *  0.168035 *  0.284924 *  -1.21800    1.000000    
    352 O2    c    0.815457 *  0.297611 *  0.284876 *  -1.21800    1.000000    
    353 O2    c    0.648725 *  0.167991 *  0.284917 *  -1.21800    1.000000    
    354 O2    c    0.648721 *  0.297624 *  0.284850 *  -1.21800    1.000000    
    355 O2    c    0.482213 *  0.167988 *  0.284922 *  -1.21800    1.000000    
    356 O2    c    0.482203 *  0.297651 *  0.284839 *  -1.21800    1.000000    
    357 O2    c    0.315612 *  0.168063 *  0.284935 *  -1.21800    1.000000    
    358 O2    c    0.315501 *  0.297660 *  0.284877 *  -1.21800    1.000000    
    359 O2    c    0.148886 *  0.834126 *  0.284968 *  -1.21800    1.000000    
    360 O2    c    0.148916 *  0.964280 *  0.285124 *  -1.21800    1.000000    
    361 O2    c    0.982535 *  0.834460 *  0.285044 *  -1.21800    1.000000    
    362 O2    c    0.982555 *  0.964139 *  0.285149 *  -1.21800    1.000000    
    363 O2    c    0.815552 *  0.834568 *  0.284999 *  -1.21800    1.000000    
    364 O2    c    0.815522 *  0.964156 *  0.284998 *  -1.21800    1.000000    
    365 O2    c    0.648788 *  0.834499 *  0.284934 *  -1.21800    1.000000    
    366 O2    c    0.648777 *  0.964191 *  0.284919 *  -1.21800    1.000000    
    367 O2    c    0.481977 *  0.834476 *  0.284966 *  -1.21800    1.000000    
    368 O2    c    0.481942 *  0.964005 *  0.285031 *  -1.21800    1.000000    
    369 O2    c    0.315127 *  0.834287 *  0.285037 *  -1.21800    1.000000    
    370 O2    c    0.315156 *  0.964006 *  0.285170 *  -1.21800    1.000000    
    371 O2    c    0.148808 *  0.501424 *  0.284831 *  -1.21800    1.000000    
    372 O2    c    0.148879 *  0.630937 *  0.284732 *  -1.21800    1.000000    
    373 O2    c    0.982295 *  0.501308 *  0.284818 *  -1.21800    1.000000    
    374 O2    c    0.982105 *  0.630864 *  0.284766 *  -1.21800    1.000000    
    375 O2    c    0.815327 *  0.501195 *  0.284862 *  -1.21800    1.000000    
    376 O2    c    0.815279 *  0.630641 *  0.284946 *  -1.21800    1.000000    
    377 O2    c    0.648598 *  0.500948 *  0.284828 *  -1.21800    1.000000    
    378 O2    c    0.648544 *  0.630755 *  0.284939 *  -1.21800    1.000000    
    379 O2    c    0.482274 *  0.501034 *  0.284838 *  -1.21800    1.000000    
    380 O2    c    0.482388 *  0.630826 *  0.284877 *  -1.21800    1.000000    
    381 O2    c    0.399094 *  0.732658 *  0.273956 *  -1.21800    1.000000    
    382 O2    c    0.232099 *  0.399682 *  0.274031 *  -1.21800    1.000000    
    383 O2    c    0.065522 *  0.399533 *  0.274053 *  -1.21800    1.000000    
    384 O2    c    0.898939 *  0.399486 *  0.274035 *  -1.21800    1.000000    
    385 O2    c    0.732358 *  0.399300 *  0.273973 *  -1.21800    1.000000    
    386 O2    c    0.565452 *  0.399186 *  0.273937 *  -1.21800    1.000000    
    387 O2    c    0.398565 *  0.399496 *  0.273973 *  -1.21800    1.000000    
    388 O2    c    0.232251 *  0.066186 *  0.274168 *  -1.21800    1.000000    
    389 O2    c    0.065459 *  0.066149 *  0.274168 *  -1.21800    1.000000    
    390 O2    c    0.898862 *  0.065969 *  0.274161 *  -1.21800    1.000000    
    391 O2    c    0.732172 *  0.066075 *  0.274134 *  -1.21800    1.000000    
    392 O2    c    0.565391 *  0.065955 *  0.274131 *  -1.21800    1.000000    
    393 O2    c    0.398750 *  0.065879 *  0.274155 *  -1.21800    1.000000    
    394 O2    c    0.232358 *  0.732260 *  0.273886 *  -1.21800    1.000000    
    395 O2    c    0.065119 *  0.732445 *  0.273909 *  -1.21800    1.000000    
    396 O2    c    0.898437 *  0.732658 *  0.274043 *  -1.21800    1.000000    
    397 O2    c    0.732137 *  0.732648 *  0.274116 *  -1.21800    1.000000    
    398 O2    c    0.565702 *  0.732879 *  0.274063 *  -1.21800    1.000000    
    399 O2    c    0.398611 *  0.566034 *  0.268309 *  -1.21800    1.000000    
    400 O2    c    0.232222 *  0.232844 *  0.268343 *  -1.21800    1.000000    
    401 O2    c    0.065503 *  0.232881 *  0.268352 *  -1.21800    1.000000    
    402 O2    c    0.898778 *  0.232822 *  0.268347 *  -1.21800    1.000000    
    403 O2    c    0.732116 *  0.232815 *  0.268341 *  -1.21800    1.000000    
    404 O2    c    0.565473 *  0.232785 *  0.268345 *  -1.21800    1.000000    
    405 O2    c    0.398830 *  0.232825 *  0.268342 *  -1.21800    1.000000    
    406 O2    c    0.232364 *  0.899263 *  0.268679 *  -1.21800    1.000000    
    407 O2    c    0.065407 *  0.899322 *  0.268686 *  -1.21800    1.000000    
    408 O2    c    0.898719 *  0.899322 *  0.268524 *  -1.21800    1.000000    
    409 O2    c    0.732090 *  0.899302 *  0.268413 *  -1.21800    1.000000    
    410 O2    c    0.565422 *  0.899308 *  0.268402 *  -1.21800    1.000000    
    411 O2    c    0.398886 *  0.899271 *  0.268501 *  -1.21800    1.000000    
    412 O2    c    0.232212 *  0.566053 *  0.268205 *  -1.21800    1.000000    
    413 O2    c    0.065596 *  0.566068 *  0.268216 *  -1.21800    1.000000    
    414 O2    c    0.898851 *  0.566012 *  0.268270 *  -1.21800    1.000000    
    415 O2    c    0.732227 *  0.566026 *  0.268362 *  -1.21800    1.000000    
    416 O2    c    0.565401 *  0.565985 *  0.268418 *  -1.21800    1.000000    
    417 O2    c    0.315588 *  0.667168 *  0.257300 *  -1.21800    1.000000    
    418 O2    c    0.315453 *  0.464950 *  0.257316 *  -1.21800    1.000000    
    419 O2    c    0.148841 *  0.333924 *  0.257382 *  -1.21800    1.000000    
    420 O2    c    0.148839 *  0.131625 *  0.257471 *  -1.21800    1.000000    
    421 O2    c    0.982175 *  0.333900 *  0.257377 *  -1.21800    1.000000    
    422 O2    c    0.982148 *  0.131618 *  0.257464 *  -1.21800    1.000000    
    423 O2    c    0.815538 *  0.333864 *  0.257352 *  -1.21800    1.000000    
    424 O2    c    0.815488 *  0.131596 *  0.257457 *  -1.21800    1.000000    
    425 O2    c    0.648833 *  0.333865 *  0.257339 *  -1.21800    1.000000    
    426 O2    c    0.648784 *  0.131580 *  0.257452 *  -1.21800    1.000000    
    427 O2    c    0.482096 *  0.333889 *  0.257344 *  -1.21800    1.000000    
    428 O2    c    0.482121 *  0.131578 *  0.257458 *  -1.21800    1.000000    
    429 O2    c    0.315442 *  0.333908 *  0.257358 *  -1.21800    1.000000    
    430 O2    c    0.315525 *  0.131614 *  0.257461 *  -1.21800    1.000000    
    431 O2    c    0.148862 *  0.000505 *  0.257591 *  -1.21800    1.000000    
    432 O2    c    0.148840 *  0.798091 *  0.257476 *  -1.21800    1.000000    
    433 O2    c    0.982198 *  0.000498 *  0.257550 *  -1.21800    1.000000    
    434 O2    c    0.982060 *  0.798186 *  0.257449 *  -1.21800    1.000000    
    435 O2    c    0.815501 *  0.000520 *  0.257492 *  -1.21800    1.000000    
    436 O2    c    0.815420 *  0.798239 *  0.257428 *  -1.21800    1.000000    
    437 O2    c    0.648792 *  0.000527 *  0.257466 *  -1.21800    1.000000    
    438 O2    c    0.648846 *  0.798246 *  0.257410 *  -1.21800    1.000000    
    439 O2    c    0.482091 *  0.000491 *  0.257484 *  -1.21800    1.000000    
    440 O2    c    0.482202 *  0.798216 *  0.257397 *  -1.21800    1.000000    
    441 O2    c    0.315452 *  0.000480 *  0.257542 *  -1.21800    1.000000    
    442 O2    c    0.315518 *  0.798130 *  0.257430 *  -1.21800    1.000000    
    443 O2    c    0.148825 *  0.667184 *  0.257280 *  -1.21800    1.000000    
    444 O2    c    0.148836 *  0.464960 *  0.257321 *  -1.21800    1.000000    
    445 O2    c    0.982021 *  0.667149 *  0.257310 *  -1.21800    1.000000    
    446 O2    c    0.982194 *  0.464941 *  0.257336 *  -1.21800    1.000000    
    447 O2    c    0.815405 *  0.667128 *  0.257382 *  -1.21800    1.000000    
    448 O2    c    0.815516 *  0.464898 *  0.257346 *  -1.21800    1.000000    
    449 O2    c    0.648810 *  0.667146 *  0.257423 *  -1.21800    1.000000    
    450 O2    c    0.648813 *  0.464848 *  0.257370 *  -1.21800    1.000000    
    451 O2    c    0.482245 *  0.667166 *  0.257382 *  -1.21800    1.000000    
    452 O2    c    0.482109 *  0.464876 *  0.257358 *  -1.21800    1.000000    
    453 O2    c    0.399095 *  0.566052 *  0.246917 *  -1.21800    1.000000    
    454 O2    c    0.232150 *  0.232768 *  0.246969 *  -1.21800    1.000000    
    455 O2    c    0.065502 *  0.232773 *  0.246977 *  -1.21800    1.000000    
    456 O2    c    0.898838 *  0.232728 *  0.246971 *  -1.21800    1.000000    
    457 O2    c    0.732142 *  0.232689 *  0.246962 *  -1.21800    1.000000    
    458 O2    c    0.565465 *  0.232720 *  0.246961 *  -1.21800    1.000000    
    459 O2    c    0.398827 *  0.232757 *  0.246962 *  -1.21800    1.000000    
    460 O2    c    0.231927 *  0.899212 *  0.247233 *  -1.21800    1.000000    
    461 O2    c    0.065704 *  0.899240 *  0.247246 *  -1.21800    1.000000    
    462 O2    c    0.899115 *  0.899381 *  0.247137 *  -1.21800    1.000000    
    463 O2    c    0.732265 *  0.899468 *  0.247046 *  -1.21800    1.000000    
    464 O2    c    0.565382 *  0.899424 *  0.247034 *  -1.21800    1.000000    
    465 O2    c    0.398501 *  0.899311 *  0.247111 *  -1.21800    1.000000    
    466 O2    c    0.232255 *  0.566138 *  0.246839 *  -1.21800    1.000000    
    467 O2    c    0.065421 *  0.566107 *  0.246845 *  -1.21800    1.000000    
    468 O2    c    0.898651 *  0.566012 *  0.246898 *  -1.21800    1.000000    
    469 O2    c    0.731947 *  0.565961 *  0.246970 *  -1.21800    1.000000    
    470 O2    c    0.565535 *  0.565967 *  0.246995 *  -1.21800    1.000000    
    471 O2    c    0.398756 *  0.732711 *  0.240397 *  -1.21800    1.000000    
    472 O2    c    0.232189 *  0.399345 *  0.240405 *  -1.21800    1.000000    
    473 O2    c    0.065517 *  0.399349 *  0.240422 *  -1.21800    1.000000    
    474 O2    c    0.898810 *  0.399374 *  0.240416 *  -1.21800    1.000000    
    475 O2    c    0.732102 *  0.399395 *  0.240391 *  -1.21800    1.000000    
    476 O2    c    0.565458 *  0.399406 *  0.240373 *  -1.21800    1.000000    
    477 O2    c    0.398845 *  0.399373 *  0.240381 *  -1.21800    1.000000    
    478 O2    c    0.232175 *  0.066034 *  0.240582 *  -1.21800    1.000000    
    479 O2    c    0.065516 *  0.066024 *  0.240586 *  -1.21800    1.000000    
    480 O2    c    0.898812 *  0.066053 *  0.240561 *  -1.21800    1.000000    
    481 O2    c    0.732124 *  0.066071 *  0.240532 *  -1.21800    1.000000    
    482 O2    c    0.565461 *  0.066067 *  0.240528 *  -1.21800    1.000000    
    483 O2    c    0.398825 *  0.066051 *  0.240552 *  -1.21800    1.000000    
    484 O2    c    0.232158 *  0.732783 *  0.240354 *  -1.21800    1.000000    
    485 O2    c    0.065576 *  0.732789 *  0.240385 *  -1.21800    1.000000    
    486 O2    c    0.898867 *  0.732731 *  0.240451 *  -1.21800    1.000000    
    487 O2    c    0.732129 *  0.732666 *  0.240492 *  -1.21800    1.000000    
    488 O2    c    0.565415 *  0.732659 *  0.240463 *  -1.21800    1.000000    
    489 O2    c    0.315604 *  0.505434 *  0.229184 *  -1.21800    1.000000    
    490 O2    c    0.148821 *  0.172000 *  0.229313 *  -1.21800    1.000000    
    491 O2    c    0.982163 *  0.171997 *  0.229305 *  -1.21800    1.000000    
    492 O2    c    0.815500 *  0.171995 *  0.229283 *  -1.21800    1.000000    
    493 O2    c    0.648809 *  0.171993 *  0.229270 *  -1.21800    1.000000    
    494 O2    c    0.482140 *  0.171993 *  0.229276 *  -1.21800    1.000000    
    495 O2    c    0.315493 *  0.171999 *  0.229299 *  -1.21800    1.000000    
    496 O2    c    0.148816 *  0.838684 *  0.229360 *  -1.21800    1.000000    
    497 O2    c    0.982311 *  0.838718 *  0.229374 *  -1.21800    1.000000    
    498 O2    c    0.815625 *  0.838758 *  0.229355 *  -1.21800    1.000000    
    499 O2    c    0.648835 *  0.838768 *  0.229330 *  -1.21800    1.000000    
    500 O2    c    0.482012 *  0.838757 *  0.229323 *  -1.21800    1.000000    
    501 O2    c    0.315308 *  0.838716 *  0.229339 *  -1.21800    1.000000    
    502 O2    c    0.148827 *  0.505442 *  0.229170 *  -1.21800    1.000000    
    503 O2    c    0.982076 *  0.505423 *  0.229181 *  -1.21800    1.000000    
    504 O2    c    0.815367 *  0.505401 *  0.229206 *  -1.21800    1.000000    
    505 O2    c    0.648777 *  0.505374 *  0.229214 *  -1.21800    1.000000    
    506 O2    c    0.482260 *  0.505387 *  0.229201 *  -1.21800    1.000000    
    507 O2    c    0.315618 *  0.626749 *  0.229163 *  -1.21800    1.000000    
    508 O2    c    0.148830 *  0.293344 *  0.229224 *  -1.21800    1.000000    
    509 O2    c    0.982171 *  0.293340 *  0.229232 *  -1.21800    1.000000    
    510 O2    c    0.815498 *  0.293330 *  0.229231 *  -1.21800    1.000000    
    511 O2    c    0.648820 *  0.293325 *  0.229220 *  -1.21800    1.000000    
    512 O2    c    0.482136 *  0.293333 *  0.229212 *  -1.21800    1.000000    
    513 O2    c    0.315472 *  0.293341 *  0.229215 *  -1.21800    1.000000    
    514 O2    c    0.148810 *  0.960074 *  0.229485 *  -1.21800    1.000000    
    515 O2    c    0.982320 *  0.960058 *  0.229456 *  -1.21800    1.000000    
    516 O2    c    0.815624 *  0.960044 *  0.229376 *  -1.21800    1.000000    
    517 O2    c    0.648825 *  0.960038 *  0.229331 *  -1.21800    1.000000    
    518 O2    c    0.482022 *  0.960029 *  0.229367 *  -1.21800    1.000000    
    519 O2    c    0.315309 *  0.960049 *  0.229445 *  -1.21800    1.000000    
    520 O2    c    0.148826 *  0.626748 *  0.229136 *  -1.21800    1.000000    
    521 O2    c    0.982062 *  0.626753 *  0.229176 *  -1.21800    1.000000    
    522 O2    c    0.815369 *  0.626754 *  0.229240 *  -1.21800    1.000000    
    523 O2    c    0.648773 *  0.626773 *  0.229263 *  -1.21800    1.000000    
    524 O2    c    0.482261 *  0.626776 *  0.229223 *  -1.21800    1.000000    
    525 O2    c    0.398967 *  0.732932 *  0.219742 *  -1.21800    1.000000    
    526 O2    c    0.232110 *  0.399505 *  0.219748 *  -1.21800    1.000000    
    527 O2    c    0.065466 *  0.399440 *  0.219763 *  -1.21800    1.000000    
    528 O2    c    0.898844 *  0.399368 *  0.219757 *  -1.21800    1.000000    
    529 O2    c    0.732210 *  0.399264 *  0.219733 *  -1.21800    1.000000    
    530 O2    c    0.565509 *  0.399214 *  0.219715 *  -1.21800    1.000000    
    531 O2    c    0.398782 *  0.399378 *  0.219724 *  -1.21800    1.000000    
    532 O2    c    0.232093 *  0.065947 *  0.219921 *  -1.21800    1.000000    
    533 O2    c    0.065524 *  0.065951 *  0.219924 *  -1.21800    1.000000    
    534 O2    c    0.898931 *  0.065856 *  0.219904 *  -1.21800    1.000000    
    535 O2    c    0.732221 *  0.065872 *  0.219877 *  -1.21800    1.000000    
    536 O2    c    0.565442 *  0.065847 *  0.219873 *  -1.21800    1.000000    
    537 O2    c    0.398710 *  0.065821 *  0.219896 *  -1.21800    1.000000    
    538 O2    c    0.232174 *  0.732695 *  0.219702 *  -1.21800    1.000000    
    539 O2    c    0.065337 *  0.732747 *  0.219728 *  -1.21800    1.000000    
    540 O2    c    0.898667 *  0.732903 *  0.219793 *  -1.21800    1.000000    
    541 O2    c    0.732143 *  0.732999 *  0.219830 *  -1.21800    1.000000    
    542 O2    c    0.565617 *  0.733084 *  0.219803 *  -1.21800    1.000000    
    543 O176  c    0.680216 *  0.459164 *  0.358889 *  -1.08000    1.000000    
    544 O177  c    0.145046 *  0.897784 *  0.422966 *  -1.08000    1.000000    
    545 O176  c    0.680216 *  0.336404 *  0.358889 *  -1.08000    1.000000    
    546 O177  c    0.267806 *  0.897784 *  0.422966 *  -1.08000    1.000000    
    547 O176  c    0.241596 *  0.897784 *  0.358889 *  -1.08000    1.000000    
    548 O177  c    0.706426 *  0.459164 *  0.422966 *  -1.08000    1.000000    
    549 O176  c    0.118836 *  0.897784 *  0.358889 *  -1.08000    1.000000    
    550 O177  c    0.706426 *  0.336404 *  0.422966 *  -1.08000    1.000000    
    551 O171  c    0.217822 *  0.897784 *  0.450826 *  -2.00000    1.000000    
    552 O171  c    0.717822 *  0.397784 *  0.450826 *  -2.00000    1.000000    
    553 O170  c    0.306419 *  0.750814 *  0.458179 *  -1.08000    1.000000    
    554 O170  c    0.067844 *  0.983374 *  0.443473 *  -1.08000    1.000000    
    555 O170  c    0.361784 *  0.812194 *  0.443473 *  -1.08000    1.000000    
    556 O170  c    0.135239 *  0.044754 *  0.458179 *  -1.08000    1.000000    
    557 O170  c    0.361784 *  0.983374 *  0.443473 *  -1.08000    1.000000    
    558 O170  c    0.067844 *  0.812194 *  0.443473 *  -1.08000    1.000000    
    559 O170  c    0.306419 *  0.044754 *  0.458179 *  -1.08000    1.000000    
    560 O170  c    0.135239 *  0.750814 *  0.458179 *  -1.08000    1.000000    
    561 O170  c    0.229217 *  0.959164 *  0.478686 *  -1.08000    1.000000    
    562 O170  c    0.694047 *  0.397784 *  0.542764 *  -1.08000    1.000000    
    563 O170  c    0.229217 *  0.836404 *  0.478686 *  -1.08000    1.000000    
    564 O170  c    0.816807 *  0.397784 *  0.542764 *  -1.08000    1.000000    
    565 O170  c    0.790597 *  0.397784 *  0.478686 *  -1.08000    1.000000    
    566 O170  c    0.255427 *  0.959164 *  0.542764 *  -1.08000    1.000000    
    567 O170  c    0.667837 *  0.397784 *  0.478686 *  -1.08000    1.000000    
    568 O170  c    0.255427 *  0.836404 *  0.542764 *  -1.08000    1.000000    
    569 O170  c    0.573859 *  0.312194 *  0.458179 *  -1.08000    1.000000    
    570 O170  c    0.800404 *  0.544754 *  0.443473 *  -1.08000    1.000000    
    571 O170  c    0.629224 *  0.250814 *  0.443473 *  -1.08000    1.000000    
    572 O170  c    0.867799 *  0.483374 *  0.458179 *  -1.08000    1.000000    
    573 O170  c    0.800404 *  0.250814 *  0.443473 *  -1.08000    1.000000    
    574 O170  c    0.629224 *  0.544754 *  0.443473 *  -1.08000    1.000000    
    575 O170  c    0.867799 *  0.312194 *  0.458179 *  -1.08000    1.000000    
    576 O170  c    0.573859 *  0.483374 *  0.458179 *  -1.08000    1.000000    
    577 O171  c    0.766823 *  0.397784 *  0.570624 *  -2.00000    1.000000    
    578 O171  c    0.266823 *  0.897784 *  0.570624 *  -2.00000    1.000000    
    579 O170  c    0.855421 *  0.250814 *  0.577977 *  -1.08000    1.000000    
    580 O170  c    0.616845 *  0.483374 *  0.563271 *  -1.08000    1.000000    
    581 O170  c    0.910785 *  0.312194 *  0.563271 *  -1.08000    1.000000    
    582 O170  c    0.684241 *  0.544754 *  0.577977 *  -1.08000    1.000000    
    583 O170  c    0.910785 *  0.483374 *  0.563271 *  -1.08000    1.000000    
    584 O170  c    0.616845 *  0.312194 *  0.563271 *  -1.08000    1.000000    
    585 O170  c    0.855421 *  0.544754 *  0.577977 *  -1.08000    1.000000    
    586 O170  c    0.684241 *  0.250814 *  0.577977 *  -1.08000    1.000000    
    587 O170  c    0.778219 *  0.459164 *  0.598484 *  -1.08000    1.000000    
    588 O170  c    0.243049 *  0.897784 *  0.662562 *  -1.08000    1.000000    
    589 O170  c    0.778219 *  0.336404 *  0.598484 *  -1.08000    1.000000    
    590 O170  c    0.365809 *  0.897784 *  0.662562 *  -1.08000    1.000000    
    591 O170  c    0.339599 *  0.897784 *  0.598484 *  -1.08000    1.000000    
    592 O170  c    0.804429 *  0.459164 *  0.662562 *  -1.08000    1.000000    
    593 O170  c    0.216839 *  0.897784 *  0.598484 *  -1.08000    1.000000    
    594 O170  c    0.804429 *  0.336404 *  0.662562 *  -1.08000    1.000000    
    595 O170  c    0.122861 *  0.812194 *  0.577977 *  -1.08000    1.000000    
    596 O170  c    0.349405 *  0.044754 *  0.563271 *  -1.08000    1.000000    
    597 O170  c    0.178225 *  0.750814 *  0.563271 *  -1.08000    1.000000    
    598 O170  c    0.416801 *  0.983374 *  0.577977 *  -1.08000    1.000000    
    599 O170  c    0.349405 *  0.750814 *  0.563271 *  -1.08000    1.000000    
    600 O170  c    0.178225 *  0.044754 *  0.563271 *  -1.08000    1.000000    
    601 O170  c    0.416801 *  0.812194 *  0.577977 *  -1.08000    1.000000    
    602 O170  c    0.122861 *  0.983374 *  0.577977 *  -1.08000    1.000000    
    603 O171  c    0.315824 *  0.897784 *  0.690422 *  -2.00000    1.000000    
    604 O171  c    0.815824 *  0.397784 *  0.690422 *  -2.00000    1.000000    
    605 O170  c    0.404422 *  0.750814 *  0.697775 *  -1.08000    1.000000    
    606 O170  c    0.165847 *  0.983374 *  0.683069 *  -1.08000    1.000000    
    607 O170  c    0.459787 *  0.812194 *  0.683069 *  -1.08000    1.000000    
    608 O170  c    0.233242 *  0.044754 *  0.697775 *  -1.08000    1.000000    
    609 O170  c    0.459787 *  0.983374 *  0.683069 *  -1.08000    1.000000    
    610 O170  c    0.165847 *  0.812194 *  0.683069 *  -1.08000    1.000000    
    611 O170  c    0.404422 *  0.044754 *  0.697775 *  -1.08000    1.000000    
    612 O170  c    0.233242 *  0.750814 *  0.697775 *  -1.08000    1.000000    
    613 O170  c    0.327220 *  0.959164 *  0.718282 *  -1.08000    1.000000    
    614 O173  c    0.792050 *  0.397784 *  0.782360 *  -0.69000    1.000000    
    615 O170  c    0.327220 *  0.836404 *  0.718282 *  -1.08000    1.000000    
    616 O172  c    0.914810 *  0.397784 *  0.782360 *  -0.69000    1.000000    
    617 H21   c    0.914810 *  0.397784 *  0.791065 *   0.22000    1.000000    
    618 O170  c    0.888600 *  0.397784 *  0.718282 *  -1.08000    1.000000    
    619 O173  c    0.353430 *  0.959164 *  0.782360 *  -0.69000    1.000000    
    620 O170  c    0.765840 *  0.397784 *  0.718282 *  -1.08000    1.000000    
    621 O172  c    0.353430 *  0.836404 *  0.782360 *  -0.69000    1.000000    
    622 H21   c    0.353430 *  0.836404 *  0.791065 *   0.22000    1.000000    
    623 O170  c    0.671862 *  0.312194 *  0.697775 *  -1.08000    1.000000    
    624 O170  c    0.898407 *  0.544754 *  0.683069 *  -1.08000    1.000000    
    625 O170  c    0.727227 *  0.250814 *  0.683069 *  -1.08000    1.000000    
    626 O170  c    0.965802 *  0.483374 *  0.697775 *  -1.08000    1.000000    
    627 O170  c    0.898407 *  0.250814 *  0.683069 *  -1.08000    1.000000    
    628 O170  c    0.727227 *  0.544754 *  0.683069 *  -1.08000    1.000000    
    629 O170  c    0.965802 *  0.312194 *  0.697775 *  -1.08000    1.000000    
    630 O170  c    0.671862 *  0.483374 *  0.697775 *  -1.08000    1.000000    
    631 C912  c    0.690697 *  0.463704 *  0.384513 *  -0.07025    1.000000    
    632 C912  c    0.130024 *  0.897784 *  0.397341 *  -0.07025    1.000000    
    633 C912  c    0.690697 *  0.331864 *  0.384513 *  -0.07025    1.000000    
    634 C912  c    0.261864 *  0.897784 *  0.397341 *  -0.07025    1.000000    
    635 C912  c    0.256617 *  0.897784 *  0.384513 *  -0.07025    1.000000    
    636 C912  c    0.695944 *  0.463704 *  0.397341 *  -0.07025    1.000000    
    637 C912  c    0.124777 *  0.897784 *  0.384513 *  -0.07025    1.000000    
    638 C912  c    0.695944 *  0.331864 *  0.397341 *  -0.07025    1.000000    
    639 C916  c    0.682390 *  0.397784 *  0.364203 *   1.07050    1.000000    
    640 C917  c    0.204252 *  0.897784 *  0.417652 *   1.07050    1.000000    
    641 C916  c    0.182390 *  0.897784 *  0.364203 *   1.07050    1.000000    
    642 C917  c    0.704252 *  0.397784 *  0.417652 *   1.07050    1.000000    
    643 C902  c    0.688055 *  0.397784 *  0.378054 *   0.00500    1.000000    
    644 C902  c    0.198587 *  0.897784 *  0.403801 *   0.00500    1.000000    
    645 C902  c    0.188055 *  0.897784 *  0.378054 *   0.00500    1.000000    
    646 C902  c    0.698587 *  0.397784 *  0.403801 *   0.00500    1.000000    
    647 C912  c    0.411322 *  0.641594 *  0.458723 *  -0.07025    1.000000    
    648 C912  c    0.958401 *  0.088054 *  0.442929 *  -0.07025    1.000000    
    649 C912  c    0.470781 *  0.707514 *  0.442929 *  -0.07025    1.000000    
    650 C912  c    0.030782 *  0.153974 *  0.458723 *  -0.07025    1.000000    
    651 C912  c    0.470781 *  0.088054 *  0.442929 *  -0.07025    1.000000    
    652 C912  c    0.958401 *  0.707514 *  0.442929 *  -0.07025    1.000000    
    653 C912  c    0.411322 *  0.153974 *  0.458723 *  -0.07025    1.000000    
    654 C912  c    0.030782 *  0.641594 *  0.458723 *  -0.07025    1.000000    
    655 C912  c    0.239699 *  0.963704 *  0.504311 *  -0.07025    1.000000    
    656 C912  c    0.679026 *  0.397784 *  0.517139 *  -0.07025    1.000000    
    657 C912  c    0.239699 *  0.831864 *  0.504311 *  -0.07025    1.000000    
    658 C912  c    0.810866 *  0.397784 *  0.517139 *  -0.07025    1.000000    
    659 C912  c    0.805619 *  0.397784 *  0.504311 *  -0.07025    1.000000    
    660 C912  c    0.244946 *  0.963704 *  0.517139 *  -0.07025    1.000000    
    661 C912  c    0.673779 *  0.397784 *  0.504311 *  -0.07025    1.000000    
    662 C912  c    0.244946 *  0.831864 *  0.517139 *  -0.07025    1.000000    
    663 C912  c    0.464862 *  0.207514 *  0.458723 *  -0.07025    1.000000    
    664 C912  c    0.904862 *  0.653974 *  0.442929 *  -0.07025    1.000000    
    665 C912  c    0.524321 *  0.141594 *  0.442929 *  -0.07025    1.000000    
    666 C912  c    0.977242 *  0.588054 *  0.458723 *  -0.07025    1.000000    
    667 C912  c    0.904862 *  0.141594 *  0.442929 *  -0.07025    1.000000    
    668 C912  c    0.524321 *  0.653974 *  0.442929 *  -0.07025    1.000000    
    669 C912  c    0.977242 *  0.207514 *  0.458723 *  -0.07025    1.000000    
    670 C912  c    0.464862 *  0.588054 *  0.458723 *  -0.07025    1.000000    
    671 C913  c    0.356282 *  0.759324 *  0.450826 *   1.07050    1.000000    
    672 C913  c    0.079362 *  0.036244 *  0.450826 *   1.07050    1.000000    
    673 C913  c    0.356282 *  0.036244 *  0.450826 *   1.07050    1.000000    
    674 C913  c    0.079362 *  0.759324 *  0.450826 *   1.07050    1.000000    
    675 C913  c    0.231391 *  0.897784 *  0.484001 *   1.07050    1.000000    
    676 C913  c    0.753253 *  0.397784 *  0.537450 *   1.07050    1.000000    
    677 C913  c    0.731391 *  0.397784 *  0.484001 *   1.07050    1.000000    
    678 C913  c    0.253253 *  0.897784 *  0.537450 *   1.07050    1.000000    
    679 C913  c    0.579362 *  0.259324 *  0.450826 *   1.07050    1.000000    
    680 C913  c    0.856282 *  0.536244 *  0.450826 *   1.07050    1.000000    
    681 C913  c    0.856282 *  0.259324 *  0.450826 *   1.07050    1.000000    
    682 C913  c    0.579362 *  0.536244 *  0.450826 *   1.07050    1.000000    
    683 C902  c    0.414092 *  0.701514 *  0.450826 *   0.00500    1.000000    
    684 C902  c    0.021552 *  0.094054 *  0.450826 *   0.00500    1.000000    
    685 C902  c    0.414092 *  0.094054 *  0.450826 *   0.00500    1.000000    
    686 C902  c    0.021552 *  0.701514 *  0.450826 *   0.00500    1.000000    
    687 C902  c    0.237057 *  0.897784 *  0.497852 *   0.00500    1.000000    
    688 C902  c    0.747588 *  0.397784 *  0.523599 *   0.00500    1.000000    
    689 C902  c    0.737057 *  0.397784 *  0.497852 *   0.00500    1.000000    
    690 C902  c    0.247588 *  0.897784 *  0.523599 *   0.00500    1.000000    
    691 C902  c    0.521552 *  0.201514 *  0.450826 *   0.00500    1.000000    
    692 C902  c    0.914092 *  0.594054 *  0.450826 *   0.00500    1.000000    
    693 C902  c    0.914092 *  0.201514 *  0.450826 *   0.00500    1.000000    
    694 C902  c    0.521552 *  0.594054 *  0.450826 *   0.00500    1.000000    
    695 C912  c    0.960323 *  0.141594 *  0.578521 *  -0.07025    1.000000    
    696 C912  c    0.507403 *  0.588054 *  0.562727 *  -0.07025    1.000000    
    697 C912  c    0.019783 *  0.207514 *  0.562727 *  -0.07025    1.000000    
    698 C912  c    0.579783 *  0.653974 *  0.578521 *  -0.07025    1.000000    
    699 C912  c    0.019783 *  0.588054 *  0.562727 *  -0.07025    1.000000    
    700 C912  c    0.507403 *  0.207514 *  0.562727 *  -0.07025    1.000000    
    701 C912  c    0.960323 *  0.653974 *  0.578521 *  -0.07025    1.000000    
    702 C912  c    0.579783 *  0.141594 *  0.578521 *  -0.07025    1.000000    
    703 C912  c    0.788700 *  0.463704 *  0.624109 *  -0.07025    1.000000    
    704 C912  c    0.228027 *  0.897784 *  0.636937 *  -0.07025    1.000000    
    705 C912  c    0.788700 *  0.331864 *  0.624109 *  -0.07025    1.000000    
    706 C912  c    0.359867 *  0.897784 *  0.636937 *  -0.07025    1.000000    
    707 C912  c    0.354620 *  0.897784 *  0.624109 *  -0.07025    1.000000    
    708 C912  c    0.793947 *  0.463704 *  0.636937 *  -0.07025    1.000000    
    709 C912  c    0.222780 *  0.897784 *  0.624109 *  -0.07025    1.000000    
    710 C912  c    0.793947 *  0.331864 *  0.636937 *  -0.07025    1.000000    
    711 C912  c    0.013863 *  0.707514 *  0.578521 *  -0.07025    1.000000    
    712 C912  c    0.453863 *  0.153974 *  0.562727 *  -0.07025    1.000000    
    713 C912  c    0.073323 *  0.641594 *  0.562727 *  -0.07025    1.000000    
    714 C912  c    0.526243 *  0.088054 *  0.578521 *  -0.07025    1.000000    
    715 C912  c    0.453863 *  0.641594 *  0.562727 *  -0.07025    1.000000    
    716 C912  c    0.073323 *  0.153974 *  0.562727 *  -0.07025    1.000000    
    717 C912  c    0.526243 *  0.707514 *  0.578521 *  -0.07025    1.000000    
    718 C912  c    0.013863 *  0.088054 *  0.578521 *  -0.07025    1.000000    
    719 C913  c    0.905283 *  0.259324 *  0.570624 *   1.07050    1.000000    
    720 C913  c    0.628363 *  0.536244 *  0.570624 *   1.07050    1.000000    
    721 C913  c    0.905283 *  0.536244 *  0.570624 *   1.07050    1.000000    
    722 C913  c    0.628363 *  0.259324 *  0.570624 *   1.07050    1.000000    
    723 C913  c    0.780392 *  0.397784 *  0.603799 *   1.07050    1.000000    
    724 C913  c    0.302255 *  0.897784 *  0.657248 *   1.07050    1.000000    
    725 C913  c    0.280392 *  0.897784 *  0.603799 *   1.07050    1.000000    
    726 C913  c    0.802255 *  0.397784 *  0.657248 *   1.07050    1.000000    
    727 C913  c    0.128363 *  0.759324 *  0.570624 *   1.07050    1.000000    
    728 C913  c    0.405283 *  0.036244 *  0.570624 *   1.07050    1.000000    
    729 C913  c    0.405283 *  0.759324 *  0.570624 *   1.07050    1.000000    
    730 C913  c    0.128363 *  0.036244 *  0.570624 *   1.07050    1.000000    
    731 C902  c    0.963093 *  0.201514 *  0.570624 *   0.00500    1.000000    
    732 C902  c    0.570553 *  0.594054 *  0.570624 *   0.00500    1.000000    
    733 C902  c    0.963093 *  0.594054 *  0.570624 *   0.00500    1.000000    
    734 C902  c    0.570553 *  0.201514 *  0.570624 *   0.00500    1.000000    
    735 C902  c    0.786058 *  0.397784 *  0.617650 *   0.00500    1.000000    
    736 C902  c    0.296589 *  0.897784 *  0.643397 *   0.00500    1.000000    
    737 C902  c    0.286058 *  0.897784 *  0.617650 *   0.00500    1.000000    
    738 C902  c    0.796589 *  0.397784 *  0.643397 *   0.00500    1.000000    
    739 C902  c    0.070553 *  0.701514 *  0.570624 *   0.00500    1.000000    
    740 C902  c    0.463093 *  0.094054 *  0.570624 *   0.00500    1.000000    
    741 C902  c    0.463093 *  0.701514 *  0.570624 *   0.00500    1.000000    
    742 C902  c    0.070553 *  0.094054 *  0.570624 *   0.00500    1.000000    
    743 C912  c    0.509324 *  0.641594 *  0.698319 *  -0.07025    1.000000    
    744 C912  c    0.056404 *  0.088054 *  0.682525 *  -0.07025    1.000000    
    745 C912  c    0.568784 *  0.707514 *  0.682525 *  -0.07025    1.000000    
    746 C912  c    0.128784 *  0.153974 *  0.698319 *  -0.07025    1.000000    
    747 C912  c    0.568784 *  0.088054 *  0.682525 *  -0.07025    1.000000    
    748 C912  c    0.056404 *  0.707514 *  0.682525 *  -0.07025    1.000000    
    749 C912  c    0.509324 *  0.153974 *  0.698319 *  -0.07025    1.000000    
    750 C912  c    0.128784 *  0.641594 *  0.698319 *  -0.07025    1.000000    
    751 C912  c    0.337701 *  0.963704 *  0.743907 *  -0.07025    1.000000    
    752 C912  c    0.777028 *  0.397784 *  0.756735 *  -0.07025    1.000000    
    753 C912  c    0.337701 *  0.831864 *  0.743907 *  -0.07025    1.000000    
    754 C912  c    0.908869 *  0.397784 *  0.756735 *  -0.07025    1.000000    
    755 C912  c    0.903621 *  0.397784 *  0.743907 *  -0.07025    1.000000    
    756 C912  c    0.342948 *  0.963704 *  0.756735 *  -0.07025    1.000000    
    757 C912  c    0.771781 *  0.397784 *  0.743907 *  -0.07025    1.000000    
    758 C912  c    0.342948 *  0.831864 *  0.756735 *  -0.07025    1.000000    
    759 C912  c    0.562864 *  0.207514 *  0.698319 *  -0.07025    1.000000    
    760 C912  c    0.002864 *  0.653974 *  0.682525 *  -0.07025    1.000000    
    761 C912  c    0.622324 *  0.141594 *  0.682525 *  -0.07025    1.000000    
    762 C912  c    0.075244 *  0.588054 *  0.698319 *  -0.07025    1.000000    
    763 C912  c    0.002864 *  0.141594 *  0.682525 *  -0.07025    1.000000    
    764 C912  c    0.622324 *  0.653974 *  0.682525 *  -0.07025    1.000000    
    765 C912  c    0.075244 *  0.207514 *  0.698319 *  -0.07025    1.000000    
    766 C912  c    0.562864 *  0.588054 *  0.698319 *  -0.07025    1.000000    
    767 C913  c    0.454284 *  0.759324 *  0.690422 *   1.07050    1.000000    
    768 C913  c    0.177364 *  0.036244 *  0.690422 *   1.07050    1.000000    
    769 C913  c    0.454284 *  0.036244 *  0.690422 *   1.07050    1.000000    
    770 C913  c    0.177364 *  0.759324 *  0.690422 *   1.07050    1.000000    
    771 C913  c    0.329394 *  0.897784 *  0.723596 *   1.07050    1.000000    
    772 C914  c    0.851256 *  0.397784 *  0.777046 *   1.07050    1.000000    
    773 C913  c    0.829394 *  0.397784 *  0.723596 *   1.07050    1.000000    
    774 C914  c    0.351256 *  0.897784 *  0.777046 *   1.07050    1.000000    
    775 C913  c    0.677364 *  0.259324 *  0.690422 *   1.07050    1.000000    
    776 C913  c    0.954284 *  0.536244 *  0.690422 *   1.07050    1.000000    
    777 C913  c    0.954284 *  0.259324 *  0.690422 *   1.07050    1.000000    
    778 C913  c    0.677364 *  0.536244 *  0.690422 *   1.07050    1.000000    
    779 C902  c    0.512094 *  0.701514 *  0.690422 *   0.00500    1.000000    
    780 C902  c    0.119554 *  0.094054 *  0.690422 *   0.00500    1.000000    
    781 C902  c    0.512094 *  0.094054 *  0.690422 *   0.00500    1.000000    
    782 C902  c    0.119554 *  0.701514 *  0.690422 *   0.00500    1.000000    
    783 C902  c    0.335059 *  0.897784 *  0.737448 *   0.00500    1.000000    
    784 C902  c    0.845591 *  0.397784 *  0.763195 *   0.00500    1.000000    
    785 C902  c    0.835059 *  0.397784 *  0.737448 *   0.00500    1.000000    
    786 C902  c    0.345591 *  0.897784 *  0.763195 *   0.00500    1.000000    
    787 C902  c    0.619554 *  0.201514 *  0.690422 *   0.00500    1.000000    
    788 C902  c    0.012094 *  0.594054 *  0.690422 *   0.00500    1.000000    
    789 C902  c    0.012094 *  0.201514 *  0.690422 *   0.00500    1.000000    
    790 C902  c    0.619554 *  0.594054 *  0.690422 *   0.00500    1.000000    
    791 H915  c    0.688901 *  0.508584 *  0.380121 *   0.11250    1.000000    
    792 H915  c    0.086941 *  0.897784 *  0.401733 *   0.11250    1.000000    
    793 H915  c    0.688901 *  0.286984 *  0.380121 *   0.11250    1.000000    
    794 H915  c    0.308541 *  0.897784 *  0.401733 *   0.11250    1.000000    
    795 H915  c    0.299701 *  0.897784 *  0.380121 *   0.11250    1.000000    
    796 H915  c    0.697741 *  0.508584 *  0.401733 *   0.11250    1.000000    
    797 H915  c    0.078101 *  0.897784 *  0.380121 *   0.11250    1.000000    
    798 H915  c    0.697741 *  0.286984 *  0.401733 *   0.11250    1.000000    
    799 H915  c    0.372751 *  0.637484 *  0.464100 *   0.11250    1.000000    
    800 H915  c    0.952092 *  0.047284 *  0.437553 *   0.11250    1.000000    
    801 H915  c    0.472692 *  0.748284 *  0.437553 *   0.11250    1.000000    
    802 H915  c    0.073751 *  0.158084 *  0.464100 *   0.11250    1.000000    
    803 H915  c    0.472692 *  0.047284 *  0.437553 *   0.11250    1.000000    
    804 H915  c    0.952092 *  0.748284 *  0.437553 *   0.11250    1.000000    
    805 H915  c    0.372751 *  0.158084 *  0.464100 *   0.11250    1.000000    
    806 H915  c    0.073751 *  0.637484 *  0.464100 *   0.11250    1.000000    
    807 H915  c    0.237902 *  0.008584 *  0.499919 *   0.11250    1.000000    
    808 H915  c    0.635942 *  0.397784 *  0.521531 *   0.11250    1.000000    
    809 H915  c    0.237902 *  0.786984 *  0.499919 *   0.11250    1.000000    
    810 H915  c    0.857542 *  0.397784 *  0.521531 *   0.11250    1.000000    
    811 H915  c    0.848702 *  0.397784 *  0.499919 *   0.11250    1.000000    
    812 H915  c    0.246742 *  0.008584 *  0.521531 *   0.11250    1.000000    
    813 H915  c    0.627102 *  0.397784 *  0.499919 *   0.11250    1.000000    
    814 H915  c    0.246742 *  0.786984 *  0.521531 *   0.11250    1.000000    
    815 H915  c    0.462951 *  0.248284 *  0.464100 *   0.11250    1.000000    
    816 H915  c    0.861892 *  0.658084 *  0.437553 *   0.11250    1.000000    
    817 H915  c    0.562892 *  0.137484 *  0.437553 *   0.11250    1.000000    
    818 H915  c    0.983551 *  0.547284 *  0.464100 *   0.11250    1.000000    
    819 H915  c    0.861892 *  0.137484 *  0.437553 *   0.11250    1.000000    
    820 H915  c    0.562892 *  0.658084 *  0.437553 *   0.11250    1.000000    
    821 H915  c    0.983551 *  0.248284 *  0.464100 *   0.11250    1.000000    
    822 H915  c    0.462951 *  0.547284 *  0.464100 *   0.11250    1.000000    
    823 H915  c    0.921752 *  0.137484 *  0.583898 *   0.11250    1.000000    
    824 H915  c    0.501094 *  0.547284 *  0.557351 *   0.11250    1.000000    
    825 H915  c    0.021694 *  0.248284 *  0.557351 *   0.11250    1.000000    
    826 H915  c    0.622752 *  0.658084 *  0.583898 *   0.11250    1.000000    
    827 H915  c    0.021694 *  0.547284 *  0.557351 *   0.11250    1.000000    
    828 H915  c    0.501094 *  0.248284 *  0.557351 *   0.11250    1.000000    
    829 H915  c    0.921752 *  0.658084 *  0.583898 *   0.11250    1.000000    
    830 H915  c    0.622752 *  0.137484 *  0.583898 *   0.11250    1.000000    
    831 H915  c    0.786904 *  0.508584 *  0.619717 *   0.11250    1.000000    
    832 H915  c    0.184944 *  0.897784 *  0.641329 *   0.11250    1.000000    
    833 H915  c    0.786904 *  0.286984 *  0.619717 *   0.11250    1.000000    
    834 H915  c    0.406544 *  0.897784 *  0.641329 *   0.11250    1.000000    
    835 H915  c    0.397704 *  0.897784 *  0.619717 *   0.11250    1.000000    
    836 H915  c    0.795744 *  0.508584 *  0.641329 *   0.11250    1.000000    
    837 H915  c    0.176104 *  0.897784 *  0.619717 *   0.11250    1.000000    
    838 H915  c    0.795744 *  0.286984 *  0.641329 *   0.11250    1.000000    
    839 H915  c    0.011952 *  0.748284 *  0.583898 *   0.11250    1.000000    
    840 H915  c    0.410894 *  0.158084 *  0.557351 *   0.11250    1.000000    
    841 H915  c    0.111894 *  0.637484 *  0.557351 *   0.11250    1.000000    
    842 H915  c    0.532552 *  0.047284 *  0.583898 *   0.11250    1.000000    
    843 H915  c    0.410894 *  0.637484 *  0.557351 *   0.11250    1.000000    
    844 H915  c    0.111894 *  0.158084 *  0.557351 *   0.11250    1.000000    
    845 H915  c    0.532552 *  0.748284 *  0.583898 *   0.11250    1.000000    
    846 H915  c    0.011952 *  0.047284 *  0.583898 *   0.11250    1.000000    
    847 H915  c    0.470754 *  0.637484 *  0.703696 *   0.11250    1.000000    
    848 H915  c    0.050095 *  0.047284 *  0.677148 *   0.11250    1.000000    
    849 H915  c    0.570695 *  0.748284 *  0.677148 *   0.11250    1.000000    
    850 H915  c    0.171754 *  0.158084 *  0.703696 *   0.11250    1.000000    
    851 H915  c    0.570695 *  0.047284 *  0.677148 *   0.11250    1.000000    
    852 H915  c    0.050095 *  0.748284 *  0.677148 *   0.11250    1.000000    
    853 H915  c    0.470754 *  0.158084 *  0.703696 *   0.11250    1.000000    
    854 H915  c    0.171754 *  0.637484 *  0.703696 *   0.11250    1.000000    
    855 H915  c    0.335905 *  0.008584 *  0.739515 *   0.11250    1.000000    
    856 H915  c    0.733945 *  0.397784 *  0.761127 *   0.11250    1.000000    
    857 H915  c    0.335905 *  0.786984 *  0.739515 *   0.11250    1.000000    
    858 H915  c    0.955545 *  0.397784 *  0.761127 *   0.11250    1.000000    
    859 H915  c    0.946705 *  0.397784 *  0.739515 *   0.11250    1.000000    
    860 H915  c    0.344745 *  0.008584 *  0.761127 *   0.11250    1.000000    
    861 H915  c    0.725105 *  0.397784 *  0.739515 *   0.11250    1.000000    
    862 H915  c    0.344745 *  0.786984 *  0.761127 *   0.11250    1.000000    
    863 H915  c    0.560954 *  0.248284 *  0.703696 *   0.11250    1.000000    
    864 H915  c    0.959895 *  0.658084 *  0.677148 *   0.11250    1.000000    
    865 H915  c    0.660895 *  0.137484 *  0.677148 *   0.11250    1.000000    
    866 H915  c    0.081554 *  0.547284 *  0.703696 *   0.11250    1.000000    
    867 H915  c    0.959895 *  0.137484 *  0.677148 *   0.11250    1.000000    
    868 H915  c    0.660895 *  0.658084 *  0.677148 *   0.11250    1.000000    
    869 H915  c    0.081554 *  0.248284 *  0.703696 *   0.11250    1.000000    
    870 H915  c    0.560954 *  0.547284 *  0.703696 *   0.11250    1.000000    
    871 Zn172 c    0.222082 *  0.810939 *  0.461231 *   2.00000    1.000000    
    872 Zn172 c    0.126721 *  0.897789 *  0.440422 *   2.00000    1.000000    
    873 Zn172 c    0.300411 *  0.897779 *  0.440422 *   2.00000    1.000000    
    874 Zn172 c    0.222072 *  0.984629 *  0.461231 *   2.00000    1.000000    
    875 Zn172 c    0.808922 *  0.397779 *  0.461231 *   2.00000    1.000000    
    876 Zn172 c    0.713561 *  0.484629 *  0.440422 *   2.00000    1.000000    
    877 Zn172 c    0.635232 *  0.397789 *  0.461231 *   2.00000    1.000000    
    878 Zn172 c    0.713571 *  0.310939 *  0.440422 *   2.00000    1.000000    
    879 Zn172 c    0.771084 *  0.310939 *  0.581029 *   2.00000    1.000000    
    880 Zn172 c    0.675722 *  0.397789 *  0.560220 *   2.00000    1.000000    
    881 Zn172 c    0.849412 *  0.397779 *  0.560220 *   2.00000    1.000000    
    882 Zn172 c    0.771074 *  0.484629 *  0.581029 *   2.00000    1.000000    
    883 Zn172 c    0.357924 *  0.897779 *  0.581029 *   2.00000    1.000000    
    884 Zn172 c    0.262562 *  0.984629 *  0.560220 *   2.00000    1.000000    
    885 Zn172 c    0.184234 *  0.897789 *  0.581029 *   2.00000    1.000000    
    886 Zn172 c    0.262572 *  0.810939 *  0.560220 *   2.00000    1.000000    
    887 Zn172 c    0.320085 *  0.810939 *  0.700826 *   2.00000    1.000000    
    888 Zn172 c    0.224723 *  0.897789 *  0.680018 *   2.00000    1.000000    
    889 Zn172 c    0.398414 *  0.897779 *  0.680018 *   2.00000    1.000000    
    890 Zn172 c    0.320075 *  0.984629 *  0.700826 *   2.00000    1.000000    
    891 Zn172 c    0.906925 *  0.397779 *  0.700826 *   2.00000    1.000000    
    892 Zn172 c    0.811564 *  0.484629 *  0.680018 *   2.00000    1.000000    
    893 Zn172 c    0.733235 *  0.397789 *  0.700826 *   2.00000    1.000000    
    894 Zn172 c    0.811574 *  0.310939 *  0.680018 *   2.00000    1.000000    
--------------------------------------------------------------------------------



  Molecule list generated from bond lengths :

  Total number of molecules =    22

--------------------------------------------------------------------------------
Molecule No./:  Atoms
Periodicity  :  
--------------------------------------------------------------------------------
     1  0    : O3   c   186 H22  c   187
     2  0    : O3   c   195 H22  c   196
     3  0    : O176 c   543 O176 c   545 O177 c   548 O177 c   550 C912 c   631
             : C912 c   633 C912 c   636 C912 c   638 C916 c   639 C917 c   642
             : C902 c   643 C902 c   646 H915 c   791 H915 c   793 H915 c   796
             : H915 c   798
     4  0    : O177 c   544 O177 c   546 O176 c   547 O176 c   549 C912 c   632
             : C912 c   634 C912 c   635 C912 c   637 C917 c   640 C916 c   641
             : C902 c   644 C902 c   645 H915 c   792 H915 c   794 H915 c   795
             : H915 c   797
     5  0    : O170 c   553 O170 c   555 O170 c   574 O170 c   576 C912 c   647
             : C912 c   649 C912 c   668 C912 c   670 C913 c   671 C913 c   682
             : C902 c   683 C902 c   694 H915 c   799 H915 c   801 H915 c   820
             : H915 c   822
     6  0    : O170 c   554 O170 c   556 O170 c   573 O170 c   575 C912 c   648
             : C912 c   650 C912 c   667 C912 c   669 C913 c   672 C913 c   681
             : C902 c   684 C902 c   693 H915 c   800 H915 c   802 H915 c   819
             : H915 c   821
     7  0    : O170 c   557 O170 c   559 O170 c   569 O170 c   571 C912 c   651
             : C912 c   653 C912 c   663 C912 c   665 C913 c   673 C913 c   679
             : C902 c   685 C902 c   691 H915 c   803 H915 c   805 H915 c   815
             : H915 c   817
     8  0    : O170 c   558 O170 c   560 O170 c   570 O170 c   572 C912 c   652
             : C912 c   654 C912 c   664 C912 c   666 C913 c   674 C913 c   680
             : C902 c   686 C902 c   692 H915 c   804 H915 c   806 H915 c   816
             : H915 c   818
     9  0    : O170 c   561 O170 c   563 O170 c   566 O170 c   568 C912 c   655
             : C912 c   657 C912 c   660 C912 c   662 C913 c   675 C913 c   678
             : C902 c   687 C902 c   690 H915 c   807 H915 c   809 H915 c   812
             : H915 c   814
    10  0    : O170 c   562 O170 c   564 O170 c   565 O170 c   567 C912 c   656
             : C912 c   658 C912 c   659 C912 c   661 C913 c   676 C913 c   677
             : C902 c   688 C902 c   689 H915 c   808 H915 c   810 H915 c   811
             : H915 c   813
    11  0    : O170 c   579 O170 c   581 O170 c   600 O170 c   602 C912 c   695
             : C912 c   697 C912 c   716 C912 c   718 C913 c   719 C913 c   730
             : C902 c   731 C902 c   742 H915 c   823 H915 c   825 H915 c   844
             : H915 c   846
    12  0    : O170 c   580 O170 c   582 O170 c   599 O170 c   601 C912 c   696
             : C912 c   698 C912 c   715 C912 c   717 C913 c   720 C913 c   729
             : C902 c   732 C902 c   741 H915 c   824 H915 c   826 H915 c   843
             : H915 c   845
    13  0    : O170 c   583 O170 c   585 O170 c   595 O170 c   597 C912 c   699
             : C912 c   701 C912 c   711 C912 c   713 C913 c   721 C913 c   727
             : C902 c   733 C902 c   739 H915 c   827 H915 c   829 H915 c   839
             : H915 c   841
    14  0    : O170 c   584 O170 c   586 O170 c   596 O170 c   598 C912 c   700
             : C912 c   702 C912 c   712 C912 c   714 C913 c   722 C913 c   728
             : C902 c   734 C902 c   740 H915 c   828 H915 c   830 H915 c   840
             : H915 c   842
    15  0    : O170 c   587 O170 c   589 O170 c   592 O170 c   594 C912 c   703
             : C912 c   705 C912 c   708 C912 c   710 C913 c   723 C913 c   726
             : C902 c   735 C902 c   738 H915 c   831 H915 c   833 H915 c   836
             : H915 c   838
    16  0    : O170 c   588 O170 c   590 O170 c   591 O170 c   593 C912 c   704
             : C912 c   706 C912 c   707 C912 c   709 C913 c   724 C913 c   725
             : C902 c   736 C902 c   737 H915 c   832 H915 c   834 H915 c   835
             : H915 c   837
    17  0    : O170 c   605 O170 c   607 O170 c   628 O170 c   630 C912 c   743
             : C912 c   745 C912 c   764 C912 c   766 C913 c   767 C913 c   778
             : C902 c   779 C902 c   790 H915 c   847 H915 c   849 H915 c   868
             : H915 c   870
    18  0    : O170 c   606 O170 c   608 O170 c   627 O170 c   629 C912 c   744
             : C912 c   746 C912 c   763 C912 c   765 C913 c   768 C913 c   777
             : C902 c   780 C902 c   789 H915 c   848 H915 c   850 H915 c   867
             : H915 c   869
    19  0    : O170 c   609 O170 c   611 O170 c   623 O170 c   625 C912 c   747
             : C912 c   749 C912 c   759 C912 c   761 C913 c   769 C913 c   775
             : C902 c   781 C902 c   787 H915 c   851 H915 c   853 H915 c   863
             : H915 c   865
    20  0    : O170 c   610 O170 c   612 O170 c   624 O170 c   626 C912 c   748
             : C912 c   750 C912 c   760 C912 c   762 C913 c   770 C913 c   776
             : C902 c   782 C902 c   788 H915 c   852 H915 c   854 H915 c   864
             : H915 c   866
    21  0    : O170 c   613 O170 c   615 O173 c   619 O172 c   621 H21  c   622
             : C912 c   751 C912 c   753 C912 c   756 C912 c   758 C913 c   771
             : C914 c   774 C902 c   783 C902 c   786 H915 c   855 H915 c   857
             : H915 c   860 H915 c   862
[...]
   640 C917  c    -17.527121           0.214025   -0.544569   -6.865648
   641 C916  c    -16.547444           0.121527    0.672358    6.137323
   642 C917  c    -17.394262          -0.989855    0.352728   -6.951963
   643 C902  c      2.166998          -0.581483    0.353250   -4.164915
   644 C902  c      1.206375          -0.148858    0.231551    3.709180
   645 C902  c      1.428306           0.239545   -0.618893   -3.918063
   646 C902  c      1.432777           0.464770   -0.332996    3.489162
   647 C912  c      1.056019          -1.089562    0.400380    0.500184
   648 C912  c      1.035208           0.280942   -1.178631   -0.499753
   649 C912  c      1.075408          -0.263135    1.184569   -0.473869
   650 C912  c      1.013506           1.047112   -0.434473    0.559341
   651 C912  c      1.045691          -0.274392   -1.178800   -0.478806
   652 C912  c      1.057723           0.279269    1.180256   -0.507591
   653 C912  c      1.033301          -1.076233   -0.414663    0.530835
   654 C912  c      1.028420           1.046614    0.431632    0.547246
   655 C912  c      1.039331          -0.015351    0.694081   -1.050625
   656 C912  c      1.053728          -0.715623    0.002025    1.053470
   657 C912  c      1.037996          -0.019054   -0.690719   -1.050010
   658 C912  c      1.059427           0.739841    0.004646    1.045055
   659 C912  c      1.058926           0.719278   -0.001097   -1.057336
   660 C912  c      1.040708           0.020920    0.691434    1.053742
   661 C912  c      1.057696          -0.736642   -0.003808   -1.046151
   662 C912  c      1.041203           0.017337   -0.693673    1.053449
   663 C912  c      1.061395           0.277347    1.188413    0.486156
   664 C912  c      1.031836          -1.054023   -0.443849   -0.546418
   665 C912  c      1.031945           1.077762    0.427484   -0.527620
   666 C912  c      1.068930          -0.281751   -1.187800    0.511062
   667 C912  c      1.019039          -1.065594    0.444698   -0.550402
   668 C912  c      1.052928           1.073435   -0.416581   -0.513014
   669 C912  c      1.046464          -0.290230    1.177087    0.513172
   670 C912  c      1.090801           0.257021   -1.209118    0.462847
   671 C913  c    -17.533019           4.700985   -5.345593   -0.258624
   672 C913  c    -17.542522          -4.694048    5.334343   -0.420905
   673 C913  c    -17.536649           4.702682    5.328143   -0.306626
   674 C913  c    -17.538591          -4.691409   -5.349027   -0.408343
   675 C913  c    -17.488164           0.112907    0.006882    6.880374
   676 C913  c    -17.487298          -0.028286   -0.022645   -6.986341
   677 C913  c    -17.488808           0.070800    0.017445    7.001428
   678 C913  c    -17.487807          -0.132724    0.005585   -6.896950
   679 C913  c    -17.512090          -4.695064   -5.322900    0.322836
   680 C913  c    -17.501137           4.660619    5.355083    0.342777
   681 C913  c    -17.510729           4.633119   -5.378008    0.290353
   682 C913  c    -17.501505          -4.739286    5.283766    0.397937
   683 C902  c      1.189075          -2.307628    2.704865    0.056078
   684 C902  c      1.148166           2.279247   -2.723722    0.111481
   685 C902  c      1.166073          -2.310768   -2.708384    0.087960
   686 C902  c      1.165234           2.270641    2.727142    0.089127
   687 C902  c      1.247551          -0.056821    0.002572   -3.739175
   688 C902  c      1.215304           0.032012    0.011477    3.630243
   689 C902  c      1.218269          -0.036466   -0.007872   -3.631948
   690 C902  c      1.251787           0.068822   -0.004775    3.741913
   691 C902  c      1.179636           2.309734    2.719873   -0.089797
   692 C902  c      1.179302          -2.279771   -2.734145   -0.072147
   693 C902  c      1.163295          -2.295162    2.724303   -0.075339
   694 C902  c      1.202129           2.292529   -2.729019   -0.102239
   695 C912  c      1.021652          -1.060734    0.443423    0.468180
   696 C912  c      1.078201           0.251443   -1.186653   -0.560642
   697 C912  c      1.077815          -0.249854    1.188092   -0.561659
   698 C912  c      1.023303           1.059379   -0.445556    0.473266
   699 C912  c      1.078079          -0.250104   -1.187973   -0.561624
   700 C912  c      1.077358           0.250315    1.187539   -0.559015
   701 C912  c      1.022024          -1.061130   -0.443166    0.468278
   702 C912  c      1.022956           1.060377    0.444780    0.471530
   703 C912  c      1.052662          -0.003509    0.700067   -1.051419
   704 C912  c      1.051249          -0.715679    0.000285    1.052178
   705 C912  c      1.052488          -0.003619   -0.700059   -1.051227
   706 C912  c      1.052697           0.724079    0.000190    1.049412
   707 C912  c      1.050980           0.715729   -0.000466   -1.051769
   708 C912  c      1.054132           0.003633    0.700004    1.053532
   709 C912  c      1.052357          -0.723970   -0.000323   -1.049042
   710 C912  c      1.054083           0.003501   -0.699833    1.053715
   711 C912  c      1.078189           0.249709    1.187922    0.561643
   712 C912  c      1.022333          -1.060366   -0.444619   -0.470510
   713 C912  c      1.021525           1.061036    0.442891   -0.467756
   714 C912  c      1.077795          -0.250183   -1.187527    0.559479
   715 C912  c      1.023563          -1.059973    0.445303   -0.472842
   716 C912  c      1.021041           1.060579   -0.443259   -0.467507
   717 C912  c      1.077798          -0.251613    1.186121    0.560666
   718 C912  c      1.078175           0.249439   -1.188249    0.561740
   719 C913  c    -17.522568           4.763254   -5.282147   -0.074259
   720 C913  c    -17.521226          -4.751122    5.292081   -0.088087
   721 C913  c    -17.522071           4.764589    5.281061   -0.073802
   722 C913  c    -17.521903          -4.750292   -5.292301   -0.083939
   723 C913  c    -17.485187           0.026041    0.001087    6.926220
   724 C913  c    -17.492379          -0.013502   -0.002536   -6.972742
   725 C913  c    -17.486416           0.014236    0.001989    6.958748
   726 C913  c    -17.471086          -0.021905   -0.000818   -6.910928
   727 C913  c    -17.523854          -4.765161   -5.283753    0.075816
   728 C913  c    -17.521932           4.752569    5.292122    0.085159
   729 C913  c    -17.521350           4.750251   -5.294696    0.083009
   730 C913  c    -17.523934          -4.764696    5.283837    0.077525
   731 C902  c      1.175455          -2.259368    2.747522   -0.124802
   732 C902  c      1.176861           2.259012   -2.749362   -0.114508
   733 C902  c      1.175673          -2.260101   -2.746622   -0.124457
   734 C902  c      1.176505           2.258917    2.750105   -0.115867
   735 C902  c      1.251180          -0.013401   -0.000192   -3.717145
   736 C902  c      1.222079           0.012837    0.001173    3.654429
   737 C902  c      1.221698          -0.013154   -0.001023   -3.654390
   738 C902  c      1.254744           0.011430    0.000284    3.720220
   739 C902  c      1.175300           2.259052    2.747190    0.123701
   740 C902  c      1.176545          -2.259363   -2.749980    0.116091
   741 C902  c      1.176864          -2.259804    2.748812    0.115660
   742 C902  c      1.175263           2.258388   -2.748255    0.123869
   743 C912  c      1.033689          -1.064557    0.432627    0.517137
   744 C912  c      1.069999           0.269296   -1.186605   -0.511976
   745 C912  c      1.071379          -0.269131    1.186949   -0.511846
   746 C912  c      1.031763           1.064256   -0.432300    0.516138
   747 C912  c      1.067946          -0.269943   -1.186541   -0.514643
   748 C912  c      1.073532           0.269332    1.186198   -0.510283
   749 C912  c      1.026921          -1.064127   -0.433494    0.514931
   750 C912  c      1.039176           1.063978    0.432098    0.519747
   751 C912  c      1.203265          -0.000959    0.643887   -0.960866
   752 C912  c      1.411653          -0.525081    0.017964    1.283840
   753 C912  c      1.255482           0.001060   -0.683065   -0.924121
   754 C912  c      1.544577           0.613204    0.016845    1.379549
   755 C912  c      1.252286           0.682481   -0.006178   -0.920075
   756 C912  c      1.409673          -0.007713    0.524613    1.282170
   757 C912  c      1.201393          -0.644521   -0.004092   -0.956680
   758 C912  c      1.544025          -0.006205   -0.613717    1.378024
   759 C912  c      1.062421           0.271855    1.187084    0.507651
   760 C912  c      1.039696          -1.065085   -0.431857   -0.518859
   761 C912  c      1.033487           1.065011    0.432414   -0.521213
   762 C912  c      1.074169          -0.270719   -1.186566    0.510696
   763 C912  c      1.036043          -1.065514    0.432010   -0.519618
   764 C912  c      1.037087           1.065624   -0.431499   -0.519490
   765 C912  c      1.067609          -0.271217    1.187614    0.508430
   766 C912  c      1.068275           0.270629   -1.186533    0.508392
   767 C913  c    -17.516316           4.705391   -5.323430   -0.278290
   768 C913  c    -17.517516          -4.704019    5.324400   -0.274293
   769 C913  c    -17.518773           4.705903    5.322448   -0.273517
   770 C913  c    -17.514742          -4.702266   -5.326799   -0.277557
   771 C913  c    -17.435211          -0.013164    0.010262    6.973720
   772 C914  c    -14.312819           0.587213   -0.052653   -4.514629
   773 C913  c    -17.447606          -0.010540    0.057344    6.964594
   774 C914  c    -14.315806           0.019380   -0.587871   -4.515135
   775 C913  c    -17.516811          -4.707212   -5.323269    0.280872
   776 C913  c    -17.513057           4.706329    5.325853    0.281172
   777 C913  c    -17.514615           4.706908   -5.323487    0.280547
   778 C913  c    -17.515613          -4.706163    5.325845    0.279181
   779 C902  c      1.180036          -2.286026    2.731421    0.031743
   780 C902  c      1.178713           2.286512   -2.731755    0.030421
   781 C902  c      1.175579          -2.286715   -2.731743    0.027560
   782 C902  c      1.183421           2.285629    2.731250    0.034224
   783 C902  c      1.370477           0.004975   -0.020494   -3.601794
   784 C902  c      2.108500           0.086076    0.054248    4.378279
   785 C902  c      1.364355           0.019698   -0.026379   -3.595491
   786 C902  c      2.106293          -0.020713   -0.086535    4.377536
   787 C902  c      1.176874           2.287071    2.732719   -0.035007
   788 C902  c      1.184721          -2.286860   -2.731450   -0.034006
   789 C902  c      1.180515          -2.287473    2.732519   -0.034689
   790 C902  c      1.180793           2.286876   -2.731603   -0.034260
   791 H915  c     -1.484403           0.012271    0.295005    0.170107
   792 H915  c     -1.988466          -0.509216   -0.049406   -0.255624
   793 H915  c     -0.875097          -0.102207   -0.364426   -0.485492
   794 H915  c     -1.933371           0.574064   -0.100674   -0.302229
   795 H915  c     -1.590995           0.563850   -0.212440    0.000107
   796 H915  c     -1.804319          -0.084488    0.527621   -0.338498
   797 H915  c     -1.894496          -0.580446   -0.091099    0.095322
   798 H915  c     -1.588613          -0.055199   -0.477216   -0.345923
   799 H915  c     -1.883950          -0.137516   -0.474481    0.344110
   800 H915  c     -1.862077          -0.371098   -0.121563   -0.357459
   801 H915  c     -1.832023           0.414807    0.109262   -0.355405
   802 H915  c     -1.928651           0.110077    0.470190    0.380212
   803 H915  c     -1.862040           0.402799   -0.115362   -0.352269
   804 H915  c     -1.835891          -0.368438    0.117817   -0.364635
   805 H915  c     -1.902248          -0.128497    0.464402    0.361283
   806 H915  c     -1.920055           0.109585   -0.478668    0.376119
   807 H915  c     -1.925759           0.005677    0.544801    0.277015
   808 H915  c     -1.887136          -0.539499   -0.001660   -0.241868
   809 H915  c     -1.929795           0.002876   -0.547474    0.282371
   810 H915  c     -1.872927           0.532298    0.000262   -0.235828
   811 H915  c     -1.875488           0.538778    0.001539    0.231622
   812 H915  c     -1.924108          -0.004575    0.546833   -0.277159
   813 H915  c     -1.878045          -0.533821   -0.000377    0.242710
   814 H915  c     -1.923173          -0.007245   -0.546079   -0.277598
   815 H915  c     -1.834221          -0.400084    0.121511    0.363070
   816 H915  c     -1.908272          -0.123642    0.449304   -0.371463
   817 H915  c     -1.905078           0.131558   -0.449853   -0.355076
   818 H915  c     -1.816557           0.378981   -0.123368    0.371668
   819 H915  c     -1.909813          -0.136947   -0.425649   -0.362698
   820 H915  c     -1.897898           0.118042    0.487424   -0.358452
   821 H915  c     -1.846886           0.390148    0.110644    0.380598
   822 H915  c     -1.796896          -0.394138   -0.141855    0.341924
   823 H915  c     -1.942590          -0.117978   -0.496701    0.390733
   824 H915  c     -1.793051          -0.374245   -0.131080   -0.352562
   825 H915  c     -1.792145           0.373951    0.133504   -0.349840
   826 H915  c     -1.939613           0.118179    0.493545    0.390461
   827 H915  c     -1.791911           0.374026   -0.133530   -0.349874
   828 H915  c     -1.794193          -0.375328    0.131455   -0.351299
   829 H915  c     -1.941945          -0.118123    0.496324    0.390537
   830 H915  c     -1.939960           0.119020   -0.494268    0.389674
   831 H915  c     -1.906806           0.001360    0.543957    0.270843
   832 H915  c     -1.892728          -0.539357   -0.000234   -0.247916
   833 H915  c     -1.907163           0.001287   -0.543937    0.271151
   834 H915  c     -1.888798           0.536403   -0.000289   -0.246549
   835 H915  c     -1.892946           0.539179   -0.000105    0.247070
   836 H915  c     -1.904304          -0.000605    0.543150   -0.267750
   837 H915  c     -1.889320          -0.536190    0.000021    0.246030
   838 H915  c     -1.904322          -0.000719   -0.543028   -0.267435
   839 H915  c     -1.791825          -0.374140    0.132904    0.350532
   840 H915  c     -1.941446          -0.118560    0.494861   -0.388724
   841 H915  c     -1.942909           0.117831   -0.496584   -0.389984
   842 H915  c     -1.793515           0.375011   -0.131337    0.351553
   843 H915  c     -1.939195          -0.118407   -0.492712   -0.389735
   844 H915  c     -1.943851           0.117635    0.497197   -0.390039
   845 H915  c     -1.794071           0.374810    0.130124    0.352625
   846 H915  c     -1.791577          -0.373845   -0.133150    0.350487
   847 H915  c     -1.913261          -0.123475   -0.470132    0.369316
   848 H915  c     -1.817570          -0.387812   -0.122968   -0.362172
   849 H915  c     -1.815930           0.386970    0.123423   -0.361827
   850 H915  c     -1.916505           0.122657    0.469280    0.367187
   851 H915  c     -1.818398           0.386611   -0.123386   -0.363091
   852 H915  c     -1.815196          -0.387754    0.122324   -0.361625
   853 H915  c     -1.921817          -0.123567    0.468111    0.366154
   854 H915  c     -1.906980           0.122170   -0.470345    0.371301
   855 H915  c     -1.835467          -0.003263    0.489149    0.292786
   856 H915  c     -1.668903          -0.247620    0.002475   -0.164393
   857 H915  c     -1.781656          -0.001884   -0.503841    0.334094
   858 H915  c     -1.393948           0.268539    0.004061    0.040235
   859 H915  c     -1.787389           0.503985    0.004677    0.337958
   860 H915  c     -1.672259          -0.002685    0.246802   -0.165596
   861 H915  c     -1.839057          -0.490139    0.006068    0.297038
   862 H915  c     -1.394740          -0.002928   -0.269134    0.038895
   863 H915  c     -1.828086          -0.381359    0.124798    0.355450
   864 H915  c     -1.906163          -0.122778    0.472508   -0.371045
   865 H915  c     -1.910956           0.122840   -0.472615   -0.373359
   866 H915  c     -1.814489           0.384016   -0.122265    0.361861
   867 H915  c     -1.909024          -0.123073   -0.472593   -0.371936
   868 H915  c     -1.907849           0.123349    0.472713   -0.371716
   869 H915  c     -1.821426           0.382797    0.124706    0.358579
   870 H915  c     -1.822243          -0.383629   -0.122557    0.357789
   871 Zn172 c    -20.936294           0.003892   -0.357883   -0.004699
   872 Zn172 c    -20.703312          -0.549786    0.018305    0.192386
   873 Zn172 c    -20.786266           0.519412    0.046754    0.258840
   874 Zn172 c    -20.928452          -0.001469    0.378319    0.005991
   875 Zn172 c    -20.645826           0.465975    0.017315   -0.032333
   876 Zn172 c    -20.883107           0.097590    0.366438   -0.157256
   877 Zn172 c    -20.634480          -0.406653    0.016445   -0.055322
   878 Zn172 c    -20.752882           0.076909   -0.161885   -0.261542
   879 Zn172 c    -20.982252          -0.003762   -0.242391    0.080473
   880 Zn172 c    -20.585170          -0.528282    0.003336    0.085600
   881 Zn172 c    -20.567796           0.514745    0.001483    0.067295
   882 Zn172 c    -20.981337          -0.003849    0.244762    0.081142
   883 Zn172 c    -20.599343           0.545676    0.000430   -0.122309
   884 Zn172 c    -21.001881           0.012104    0.268582   -0.035943
   885 Zn172 c    -20.587468          -0.544996    0.000425   -0.119950
   886 Zn172 c    -20.998184           0.014620   -0.270560   -0.038839
   887 Zn172 c    -20.889811          -0.000711   -0.274874    0.125928
   888 Zn172 c    -20.653259          -0.477930    0.000942    0.102532
   889 Zn172 c    -20.646536           0.473819    0.001245    0.095066
   890 Zn172 c    -20.895923           0.000685    0.281287    0.115884
   891 Zn172 c    -20.665415           0.506530   -0.003149   -0.139636
   892 Zn172 c    -20.913162           0.000957    0.307650   -0.051641
   893 Zn172 c    -20.668694          -0.513896   -0.005386   -0.148954
   894 Zn172 c    -20.914162           0.001051   -0.307170   -0.053125
-------------------------------------------------------------------------------

  Total time to end of lattice properties =   13573.6594 s


  Peak dynamic memory used =     148.21 MB 


  Timing analysis for GULP :

--------------------------------------------------------------------------------
  Task / Subroutine                                          Time (Seconds)
--------------------------------------------------------------------------------
  Calculation of reciprocal space energy and derivatives       3188.6542
  Calculation of real space energy and derivatives             8904.3866
  Calculation of three-body energy and derivatives               27.3547
  Calculation of four-body energy and derivatives                29.8100
  Calculation of molecules and connectivity                       0.8990
  Calculation of phonons                                         28.0187
  Calculation of scattering                                       0.0000
  Calculation of matrix inversion                              1351.7870
  Symmetry generation of equivalent positions                     0.0135
  Global summation overhead                                       0.0305
--------------------------------------------------------------------------------
  Total CPU time                                              13573.6595
--------------------------------------------------------------------------------


  Dump file written as fit1.res                                                


  Job Finished at 09:51.20 17th May        2016                               

