********************************************************************************
*                       GENERAL UTILITY LATTICE PROGRAM                        *
*                                 Julian Gale                                  *
*                      Nanochemistry Research Institute                        *
*                           Department of Chemistry                            *
*                    Curtin University, Western Australia                      *
********************************************************************************
* Version = 4.4.0 * Last modified = 31st March 2015                            *
********************************************************************************
*  optimise     - perform optimisation run                                     *
*  conv         - constant volume calculation                                  *
*  property     - calculate properties for final geometry                      *
*  phonon       - calculate phonons for final geometry                         *
*  potential    - calculate electrostatic site potentials                      *
*  molmec       - molecule option activated, Coulomb subtract 1-2/1-3 terms    *
*  fix_molecule - fix atoms of molecule as at the start of the run             *
*  compare      - compare initial and final structures                         *
********************************************************************************

  Job Started  at 16:51.00 17th May        2016                               

  Number of CPUs =     1


  Total number of configurations input =   1

********************************************************************************
*  Input for Configuration =   1                                               *
********************************************************************************

  Formula = Ti180O394H36C64Zn8                                          

  Number of irreducible atoms/shells =     682


  Total number atoms/shells =     682

  Dimensionality = 3               :  Bulk   



  Cartesian lattice vectors (Angstroms) :

       17.724000    0.000000    0.000000
        0.000000   19.461000    0.000000
        0.000000    0.000000   85.817500

  Cell parameters (Angstroms/Degrees):

  a =      17.7240    alpha =  90.0000
  b =      19.4610    beta  =  90.0000
  c =      85.8175    gamma =  90.0000

  Initial cell volume =       29600.752570 Angs**3

  Temperature of configuration =  0.000     K 

  Pressure of configuration =         0.000 GPa 

  Fractional coordinates of asymmetric unit :

--------------------------------------------------------------------------------
   No.  Atomic       x           y          z         Charge      Occupancy
        Label      (Frac)      (Frac)     (Frac)        (e)         (Frac)  
--------------------------------------------------------------------------------
      1 Ti    c    0.320000    0.733333    0.454117     2.43600    1.000000    
      2 Ti    c    0.148778 *  0.399221 *  0.456859 *   2.43600    1.000000    
      3 Ti    c    0.981989 *  0.399764 *  0.456860 *   2.43600    1.000000    
      4 Ti    c    0.815061 *  0.399883 *  0.456955 *   2.43600    1.000000    
      5 Ti    c    0.650271 *  0.399385 *  0.454804 *   2.43600    1.000000    
      6 Ti    c    0.481166 *  0.400049 *  0.455157 *   2.43600    1.000000    
      7 Ti    c    0.316097 *  0.399422 *  0.456921 *   2.43600    1.000000    
      8 Ti    c    0.148629 *  0.065834 *  0.456189 *   2.43600    1.000000    
      9 Ti    c    0.982181 *  0.065884 *  0.456797 *   2.43600    1.000000    
     10 Ti    c    0.815556 *  0.066208 *  0.456821 *   2.43600    1.000000    
     11 Ti    c    0.648910 *  0.065734 *  0.456722 *   2.43600    1.000000    
     12 Ti    c    0.481852 *  0.065905 *  0.456744 *   2.43600    1.000000    
     13 Ti    c    0.315433 *  0.065827 *  0.456767 *   2.43600    1.000000    
     14 Ti    c    0.143895 *  0.733345 *  0.453280 *   2.43600    1.000000    
     15 Ti    c    0.981358 *  0.733160 *  0.456971 *   2.43600    1.000000    
     16 Ti    c    0.815517 *  0.732688 *  0.456947 *   2.43600    1.000000    
     17 Ti    c    0.649132 *  0.732007 *  0.456942 *   2.43600    1.000000    
     18 Ti    c    0.483028 *  0.731826 *  0.457057 *   2.43600    1.000000    
     19 Ti    c    0.065421 *  0.232260 *  0.453921 *   2.43600    1.000000    
     20 Ti    c    0.898496 *  0.232895 *  0.453955 *   2.43600    1.000000    
     21 Ti    c    0.731740 *  0.233370 *  0.453855 *   2.43600    1.000000    
     22 Ti    c    0.899623 *  0.899334 *  0.453943 *   2.43600    1.000000    
     23 Ti    c    0.565074 *  0.898313 *  0.453953 *   2.43600    1.000000    
     24 Ti    c    0.397829 *  0.899334 *  0.453975 *   2.43600    1.000000    
     25 Ti    c    0.898557 *  0.566382 *  0.453793 *   2.43600    1.000000    
     26 Ti    c    0.565471 *  0.564911 *  0.455698 *   2.43600    1.000000    
     27 Ti    c    0.398965 *  0.567024 *  0.453588 *   2.43600    1.000000    
     28 Ti    c    0.232489 *  0.231906 *  0.453879 *   2.43600    1.000000    
     29 Ti    c    0.565526 *  0.230704 *  0.454256 *   2.43600    1.000000    
     30 Ti    c    0.399293 *  0.233499 *  0.453910 *   2.43600    1.000000    
     31 Ti    c    0.231008 *  0.900872 *  0.455904 *   2.43600    1.000000    
     32 Ti    c    0.066097 *  0.899792 *  0.456003 *   2.43600    1.000000    
     33 Ti    c    0.732388 *  0.899192 *  0.454004 *   2.43600    1.000000    
     34 Ti    c    0.232398 *  0.563901 *  0.453299 *   2.43600    1.000000    
     35 Ti    c    0.065450 *  0.567282 *  0.453815 *   2.43600    1.000000    
     36 Ti    c    0.731965 *  0.566516 *  0.453536 *   2.43600    1.000000    
     37 Ti    c    0.315479 *  0.566110 *  0.417058 *   2.43600    1.000000    
     38 Ti    c    0.148826 *  0.232774 *  0.417579 *   2.43600    1.000000    
     39 Ti    c    0.982073 *  0.232835 *  0.417579 *   2.43600    1.000000    
     40 Ti    c    0.815535 *  0.232696 *  0.417478 *   2.43600    1.000000    
     41 Ti    c    0.648752 *  0.232492 *  0.417642 *   2.43600    1.000000    
     42 Ti    c    0.482236 *  0.232494 *  0.417652 *   2.43600    1.000000    
     43 Ti    c    0.315480 *  0.232715 *  0.417461 *   2.43600    1.000000    
     44 Ti    c    0.148719 *  0.899652 *  0.419486 *   2.43600    1.000000    
     45 Ti    c    0.982302 *  0.899525 *  0.418223 *   2.43600    1.000000    
     46 Ti    c    0.815387 *  0.899337 *  0.417594 *   2.43600    1.000000    
     47 Ti    c    0.648825 *  0.899122 *  0.417636 *   2.43600    1.000000    
     48 Ti    c    0.482272 *  0.899194 *  0.417524 *   2.43600    1.000000    
     49 Ti    c    0.315264 *  0.899498 *  0.418229 *   2.43600    1.000000    
     50 Ti    c    0.148602 *  0.566058 *  0.417270 *   2.43600    1.000000    
     51 Ti    c    0.982032 *  0.566022 *  0.417393 *   2.43600    1.000000    
     52 Ti    c    0.815656 *  0.566200 *  0.417275 *   2.43600    1.000000    
     53 Ti    c    0.648492 *  0.565740 *  0.418180 *   2.43600    1.000000    
     54 Ti    c    0.482598 *  0.565705 *  0.418135 *   2.43600    1.000000    
     55 Ti    c    0.400477 *  0.732358 *  0.417863 *   2.43600    1.000000    
     56 Ti    c    0.231972 *  0.399380 *  0.418564 *   2.43600    1.000000    
     57 Ti    c    0.065501 *  0.399227 *  0.418598 *   2.43600    1.000000    
     58 Ti    c    0.899035 *  0.399443 *  0.418599 *   2.43600    1.000000    
     59 Ti    c    0.733031 *  0.399022 *  0.418125 *   2.43600    1.000000    
     60 Ti    c    0.565395 *  0.399031 *  0.418146 *   2.43600    1.000000    
     61 Ti    c    0.398083 *  0.398831 *  0.418196 *   2.43600    1.000000    
     62 Ti    c    0.232282 *  0.066192 *  0.418582 *   2.43600    1.000000    
     63 Ti    c    0.065331 *  0.066219 *  0.418596 *   2.43600    1.000000    
     64 Ti    c    0.898755 *  0.066093 *  0.418645 *   2.43600    1.000000    
     65 Ti    c    0.732135 *  0.065827 *  0.418616 *   2.43600    1.000000    
     66 Ti    c    0.565454 *  0.065815 *  0.418599 *   2.43600    1.000000    
     67 Ti    c    0.398823 *  0.065976 *  0.418613 *   2.43600    1.000000    
     68 Ti    c    0.232288 *  0.732954 *  0.417944 *   2.43600    1.000000    
     69 Ti    c    0.063567 *  0.732858 *  0.417707 *   2.43600    1.000000    
     70 Ti    c    0.898287 *  0.732814 *  0.418617 *   2.43600    1.000000    
     71 Ti    c    0.732147 *  0.732408 *  0.418661 *   2.43600    1.000000    
     72 Ti    c    0.565990 *  0.732382 *  0.418717 *   2.43600    1.000000    
     73 Ti    c    0.315502 *  0.732646 *  0.380937 *   2.43600    1.000000    
     74 Ti    c    0.148754 *  0.399355 *  0.381283 *   2.43600    1.000000    
     75 Ti    c    0.982210 *  0.399346 *  0.381298 *   2.43600    1.000000    
     76 Ti    c    0.815649 *  0.399304 *  0.381213 *   2.43600    1.000000    
     77 Ti    c    0.648813 *  0.399270 *  0.381028 *   2.43600    1.000000    
     78 Ti    c    0.482139 *  0.399265 *  0.381042 *   2.43600    1.000000    
     79 Ti    c    0.315353 *  0.399314 *  0.381216 *   2.43600    1.000000    
     80 Ti    c    0.148797 *  0.065970 *  0.381444 *   2.43600    1.000000    
     81 Ti    c    0.982145 *  0.065962 *  0.381475 *   2.43600    1.000000    
     82 Ti    c    0.815455 *  0.065947 *  0.381429 *   2.43600    1.000000    
     83 Ti    c    0.648805 *  0.065949 *  0.381376 *   2.43600    1.000000    
     84 Ti    c    0.482153 *  0.065907 *  0.381407 *   2.43600    1.000000    
     85 Ti    c    0.315472 *  0.065928 *  0.381461 *   2.43600    1.000000    
     86 Ti    c    0.148793 *  0.732745 *  0.380830 *   2.43600    1.000000    
     87 Ti    c    0.981813 *  0.732730 *  0.381137 *   2.43600    1.000000    
     88 Ti    c    0.815333 *  0.732628 *  0.381402 *   2.43600    1.000000    
     89 Ti    c    0.648834 *  0.732574 *  0.381388 *   2.43600    1.000000    
     90 Ti    c    0.482494 *  0.732603 *  0.381191 *   2.43600    1.000000    
     91 Ti    c    0.399286 *  0.565926 *  0.381303 *   2.43600    1.000000    
     92 Ti    c    0.232103 *  0.232596 *  0.381334 *   2.43600    1.000000    
     93 Ti    c    0.065479 *  0.232656 *  0.381362 *   2.43600    1.000000    
     94 Ti    c    0.898858 *  0.232620 *  0.381341 *   2.43600    1.000000    
     95 Ti    c    0.732105 *  0.232649 *  0.381336 *   2.43600    1.000000    
     96 Ti    c    0.565472 *  0.232614 *  0.381366 *   2.43600    1.000000    
     97 Ti    c    0.398861 *  0.232639 *  0.381342 *   2.43600    1.000000    
     98 Ti    c    0.231693 *  0.899289 *  0.382052 *   2.43600    1.000000    
     99 Ti    c    0.065873 *  0.899330 *  0.382061 *   2.43600    1.000000    
    100 Ti    c    0.899137 *  0.899323 *  0.381614 *   2.43600    1.000000    
    101 Ti    c    0.732198 *  0.899294 *  0.381423 *   2.43600    1.000000    
    102 Ti    c    0.565472 *  0.899259 *  0.381402 *   2.43600    1.000000    
    103 Ti    c    0.398438 *  0.899237 *  0.381572 *   2.43600    1.000000    
    104 Ti    c    0.232132 *  0.565984 *  0.381073 *   2.43600    1.000000    
    105 Ti    c    0.065360 *  0.566097 *  0.381145 *   2.43600    1.000000    
    106 Ti    c    0.898722 *  0.565925 *  0.381204 *   2.43600    1.000000    
    107 Ti    c    0.731791 *  0.565865 *  0.381399 *   2.43600    1.000000    
    108 Ti    c    0.565551 *  0.565838 *  0.381605 *   2.43600    1.000000    
    109 Ti    c    0.315594 *  0.565971 *  0.344969 *   2.43600    1.000000    
    110 Ti    c    0.148806 *  0.232645 *  0.345149 *   2.43600    1.000000    
    111 Ti    c    0.982150 *  0.232635 *  0.345149 *   2.43600    1.000000    
    112 Ti    c    0.815481 *  0.232624 *  0.345131 *   2.43600    1.000000    
    113 Ti    c    0.648800 *  0.232610 *  0.345130 *   2.43600    1.000000    
    114 Ti    c    0.482147 *  0.232615 *  0.345133 *   2.43600    1.000000    
    115 Ti    c    0.315483 *  0.232634 *  0.345130 *   2.43600    1.000000    
    116 Ti    c    0.148809 *  0.899297 *  0.345653 *   2.43600    1.000000    
    117 Ti    c    0.982325 *  0.899301 *  0.345505 *   2.43600    1.000000    
    118 Ti    c    0.815587 *  0.899311 *  0.345292 *   2.43600    1.000000    
    119 Ti    c    0.648814 *  0.899312 *  0.345210 *   2.43600    1.000000    
    120 Ti    c    0.482024 *  0.899298 *  0.345254 *   2.43600    1.000000    
    121 Ti    c    0.315277 *  0.899294 *  0.345465 *   2.43600    1.000000    
    122 Ti    c    0.148803 *  0.565980 *  0.344924 *   2.43600    1.000000    
    123 Ti    c    0.982083 *  0.565985 *  0.344986 *   2.43600    1.000000    
    124 Ti    c    0.815365 *  0.565959 *  0.345084 *   2.43600    1.000000    
    125 Ti    c    0.648737 *  0.565954 *  0.345222 *   2.43600    1.000000    
    126 Ti    c    0.482262 *  0.565966 *  0.345174 *   2.43600    1.000000    
    127 Ti    c    0.398957 *  0.732658 *  0.343950 *   2.43600    1.000000    
    128 Ti    c    0.232102 *  0.399304 *  0.344010 *   2.43600    1.000000    
    129 Ti    c    0.065470 *  0.399299 *  0.344041 *   2.43600    1.000000    
    130 Ti    c    0.898858 *  0.399306 *  0.344022 *   2.43600    1.000000    
    131 Ti    c    0.732218 *  0.399284 *  0.343962 *   2.43600    1.000000    
    132 Ti    c    0.565477 *  0.399278 *  0.343924 *   2.43600    1.000000    
    133 Ti    c    0.398747 *  0.399294 *  0.343957 *   2.43600    1.000000    
    134 Ti    c    0.232126 *  0.065967 *  0.344241 *   2.43600    1.000000    
    135 Ti    c    0.065485 *  0.065951 *  0.344249 *   2.43600    1.000000    
    136 Ti    c    0.898853 *  0.065937 *  0.344216 *   2.43600    1.000000    
    137 Ti    c    0.732171 *  0.065943 *  0.344172 *   2.43600    1.000000    
    138 Ti    c    0.565452 *  0.065930 *  0.344164 *   2.43600    1.000000    
    139 Ti    c    0.398760 *  0.065930 *  0.344200 *   2.43600    1.000000    
    140 Ti    c    0.232171 *  0.732640 *  0.343858 *   2.43600    1.000000    
    141 Ti    c    0.065316 *  0.732659 *  0.343921 *   2.43600    1.000000    
    142 Ti    c    0.898658 *  0.732663 *  0.344055 *   2.43600    1.000000    
    143 Ti    c    0.732129 *  0.732646 *  0.344136 *   2.43600    1.000000    
    144 Ti    c    0.565594 *  0.732667 *  0.344077 *   2.43600    1.000000    
    145 Ti    c    0.398941 *  0.566004 *  0.308696 *   2.43600    1.000000    
    146 Ti    c    0.315498 *  0.732755 *  0.305743 *   2.43600    1.000000    
    147 Ti    c    0.232131 *  0.232570 *  0.308775 *   2.43600    1.000000    
    148 Ti    c    0.148797 *  0.399276 *  0.305822 *   2.43600    1.000000    
    149 Ti    c    0.065478 *  0.232579 *  0.308785 *   2.43600    1.000000    
    150 Ti    c    0.982137 *  0.399276 *  0.305829 *   2.43600    1.000000    
    151 Ti    c    0.898826 *  0.232585 *  0.308776 *   2.43600    1.000000    
    152 Ti    c    0.815481 *  0.399280 *  0.305802 *   2.43600    1.000000    
    153 Ti    c    0.732152 *  0.232581 *  0.308760 *   2.43600    1.000000    
    154 Ti    c    0.648823 *  0.399279 *  0.305760 *   2.43600    1.000000    
    155 Ti    c    0.565472 *  0.232590 *  0.308756 *   2.43600    1.000000    
    156 Ti    c    0.482153 *  0.399280 *  0.305755 *   2.43600    1.000000    
    157 Ti    c    0.398801 *  0.232589 *  0.308763 *   2.43600    1.000000    
    158 Ti    c    0.315472 *  0.399281 *  0.305791 *   2.43600    1.000000    
    159 Ti    c    0.232030 *  0.899319 *  0.309119 *   2.43600    1.000000    
    160 Ti    c    0.148799 *  0.065874 *  0.306057 *   2.43600    1.000000    
    161 Ti    c    0.065555 *  0.899312 *  0.309139 *   2.43600    1.000000    
    162 Ti    c    0.982186 *  0.065877 *  0.306043 *   2.43600    1.000000    
    163 Ti    c    0.898958 *  0.899324 *  0.308998 *   2.43600    1.000000    
    164 Ti    c    0.815525 *  0.065890 *  0.305996 *   2.43600    1.000000    
    165 Ti    c    0.732218 *  0.899325 *  0.308877 *   2.43600    1.000000    
    166 Ti    c    0.648816 *  0.065898 *  0.305966 *   2.43600    1.000000    
    167 Ti    c    0.565431 *  0.899313 *  0.308857 *   2.43600    1.000000    
    168 Ti    c    0.482102 *  0.065888 *  0.305985 *   2.43600    1.000000    
    169 Ti    c    0.398656 *  0.899321 *  0.308958 *   2.43600    1.000000    
    170 Ti    c    0.315425 *  0.065879 *  0.306032 *   2.43600    1.000000    
    171 Ti    c    0.232192 *  0.566018 *  0.308590 *   2.43600    1.000000    
    172 Ti    c    0.148781 *  0.732767 *  0.305725 *   2.43600    1.000000    
    173 Ti    c    0.065426 *  0.566019 *  0.308603 *   2.43600    1.000000    
    174 Ti    c    0.982093 *  0.732763 *  0.305817 *   2.43600    1.000000    
    175 Ti    c    0.898715 *  0.566003 *  0.308677 *   2.43600    1.000000    
    176 Ti    c    0.815451 *  0.732741 *  0.305912 *   2.43600    1.000000    
    177 Ti    c    0.732060 *  0.566002 *  0.308774 *   2.43600    1.000000    
    178 Ti    c    0.648831 *  0.732729 *  0.305918 *   2.43600    1.000000    
    179 Ti    c    0.565517 *  0.566000 *  0.308804 *   2.43600    1.000000    
    180 Ti    c    0.482189 *  0.732741 *  0.305837 *   2.43600    1.000000    
    181 O2    c    0.394513 *  0.730320 *  0.467858 *  -1.21800    1.000000    
    182 O2    c    0.232704 *  0.402860 *  0.468538 *  -1.21800    1.000000    
    183 O2    c    0.065529 *  0.400500 *  0.468570 *  -1.21800    1.000000    
    184 O2    c    0.898299 *  0.400441 *  0.468637 *  -1.21800    1.000000    
    185 O2    c    0.727968 *  0.400569 *  0.468167 *  -1.21800    1.000000    
    186 O3    c    0.567061 *  0.231050 *  0.476566 *  -0.33800    1.000000    
    187 H22   c    0.566896 *  0.199963 *  0.485336 *   0.12000    1.000000    
    188 O2    c    0.402454 *  0.400515 *  0.468237 *  -1.21800    1.000000    
    189 O2    c    0.231460 *  0.067892 *  0.468200 *  -1.21800    1.000000    
    190 O2    c    0.066165 *  0.069296 *  0.468237 *  -1.21800    1.000000    
    191 O2    c    0.898653 *  0.068620 *  0.468540 *  -1.21800    1.000000    
    192 O2    c    0.731986 *  0.065829 *  0.468503 *  -1.21800    1.000000    
    193 O2    c    0.565425 *  0.067956 *  0.468397 *  -1.21800    1.000000    
    194 O2    c    0.398876 *  0.066852 *  0.468526 *  -1.21800    1.000000    
    195 O3    c    0.231066 *  0.733401 *  0.468243 *  -0.33800    1.000000    
    196 H22   c    0.227202 *  0.746123 *  0.479117 *   0.12000    1.000000    
    197 O2    c    0.070849 *  0.728002 *  0.467361 *  -1.21800    1.000000    
    198 O2    c    0.898896 *  0.730260 *  0.468780 *  -1.21800    1.000000    
    199 O2    c    0.732333 *  0.733067 *  0.468671 *  -1.21800    1.000000    
    200 O2    c    0.565590 *  0.733310 *  0.468757 *  -1.21800    1.000000    
    201 O2    c    0.149052 *  0.172930 *  0.455485 *  -1.21800    1.000000    
    202 O2    c    0.981440 *  0.173110 *  0.455769 *  -1.21800    1.000000    
    203 O2    c    0.814707 *  0.172933 *  0.455781 *  -1.21800    1.000000    
    204 O2    c    0.650207 *  0.172089 *  0.455430 *  -1.21800    1.000000    
    205 O2    c    0.480975 *  0.172340 *  0.455441 *  -1.21800    1.000000    
    206 O2    c    0.316503 *  0.173096 *  0.455835 *  -1.21800    1.000000    
    207 O2    c    0.150964 *  0.831022 *  0.453333 *  -1.21800    1.000000    
    208 O2    c    0.979974 *  0.835971 *  0.455730 *  -1.21800    1.000000    
    209 O2    c    0.815684 *  0.838327 *  0.456036 *  -1.21800    1.000000    
    210 O2    c    0.648793 *  0.838315 *  0.455926 *  -1.21800    1.000000    
    211 O2    c    0.480854 *  0.837508 *  0.456163 *  -1.21800    1.000000    
    212 O2    c    0.316671 *  0.833733 *  0.455349 *  -1.21800    1.000000    
    213 O2    c    0.982330 *  0.505913 *  0.455766 *  -1.21800    1.000000    
    214 O2    c    0.477281 *  0.502001 *  0.453608 *  -1.21800    1.000000    
    215 O2    c    0.316260 *  0.506315 *  0.455830 *  -1.21800    1.000000    
    216 O2    c    0.148259 *  0.506814 *  0.455790 *  -1.21800    1.000000    
    217 O2    c    0.815388 *  0.505120 *  0.455880 *  -1.21800    1.000000    
    218 O2    c    0.653340 *  0.501407 *  0.453599 *  -1.21800    1.000000    
    219 O2    c    0.312515 *  0.629147 *  0.455761 *  -1.21800    1.000000    
    220 O2    c    0.149450 *  0.293970 *  0.456041 *  -1.21800    1.000000    
    221 O2    c    0.982129 *  0.294103 *  0.455959 *  -1.21800    1.000000    
    222 O2    c    0.814835 *  0.294230 *  0.456222 *  -1.21800    1.000000    
    223 O2    c    0.647523 *  0.295797 *  0.455660 *  -1.21800    1.000000    
    224 O2    c    0.483514 *  0.295966 *  0.455804 *  -1.21800    1.000000    
    225 O2    c    0.315613 *  0.294355 *  0.456223 *  -1.21800    1.000000    
    226 O2    c    0.979372 *  0.961728 *  0.455590 *  -1.21800    1.000000    
    227 O2    c    0.482430 *  0.959340 *  0.456008 *  -1.21800    1.000000    
    228 O2    c    0.318068 *  0.960714 *  0.455646 *  -1.21800    1.000000    
    229 O2    c    0.152276 *  0.629009 *  0.455308 *  -1.21800    1.000000    
    230 O2    c    0.982314 *  0.626765 *  0.455909 *  -1.21800    1.000000    
    231 O2    c    0.815433 *  0.626590 *  0.455828 *  -1.21800    1.000000    
    232 O2    c    0.650144 *  0.626841 *  0.455843 *  -1.21800    1.000000    
    233 O2    c    0.480040 *  0.627288 *  0.455982 *  -1.21800    1.000000    
    234 O2    c    0.148928 *  0.964181 *  0.453576 *  -1.21800    1.000000    
    235 O2    c    0.815326 *  0.959990 *  0.455988 *  -1.21800    1.000000    
    236 O2    c    0.648288 *  0.959589 *  0.455933 *  -1.21800    1.000000    
    237 O2    c    0.401899 *  0.731223 *  0.440121 *  -1.21800    1.000000    
    238 O2    c    0.232347 *  0.400577 *  0.440912 *  -1.21800    1.000000    
    239 O2    c    0.065881 *  0.399607 *  0.440883 *  -1.21800    1.000000    
    240 O2    c    0.898818 *  0.399570 *  0.440913 *  -1.21800    1.000000    
    241 O2    c    0.734440 *  0.396658 *  0.440376 *  -1.21800    1.000000    
    242 O2    c    0.565230 *  0.396644 *  0.441012 *  -1.21800    1.000000    
    243 O2    c    0.396694 *  0.396922 *  0.440473 *  -1.21800    1.000000    
    244 O2    c    0.233994 *  0.069306 *  0.440588 *  -1.21800    1.000000    
    245 O2    c    0.063981 *  0.069298 *  0.440586 *  -1.21800    1.000000    
    246 O2    c    0.897678 *  0.066831 *  0.440803 *  -1.21800    1.000000    
    247 O2    c    0.731999 *  0.065512 *  0.440818 *  -1.21800    1.000000    
    248 O2    c    0.565429 *  0.065639 *  0.440800 *  -1.21800    1.000000    
    249 O2    c    0.399529 *  0.065909 *  0.440780 *  -1.21800    1.000000    
    250 O2    c    0.233616 *  0.729274 *  0.441572 *  -1.21800    1.000000    
    251 O2    c    0.060760 *  0.729087 *  0.439778 *  -1.21800    1.000000    
    252 O2    c    0.897769 *  0.731807 *  0.440910 *  -1.21800    1.000000    
    253 O2    c    0.732269 *  0.732363 *  0.440924 *  -1.21800    1.000000    
    254 O2    c    0.565488 *  0.733257 *  0.441021 *  -1.21800    1.000000    
    255 O2    c    0.396079 *  0.568204 *  0.431922 *  -1.21800    1.000000    
    256 O2    c    0.232658 *  0.233687 *  0.432098 *  -1.21800    1.000000    
    257 O2    c    0.065450 *  0.233652 *  0.432113 *  -1.21800    1.000000    
    258 O2    c    0.898382 *  0.233614 *  0.432144 *  -1.21800    1.000000    
    259 O2    c    0.732292 *  0.233940 *  0.432097 *  -1.21800    1.000000    
    260 O2    c    0.565473 *  0.232905 *  0.432266 *  -1.21800    1.000000    
    261 O2    c    0.398655 *  0.234137 *  0.432125 *  -1.21800    1.000000    
    262 O2    c    0.235318 *  0.898812 *  0.432970 *  -1.21800    1.000000    
    263 O2    c    0.062669 *  0.898287 *  0.433034 *  -1.21800    1.000000    
    264 O2    c    0.897103 *  0.898961 *  0.432189 *  -1.21800    1.000000    
    265 O2    c    0.731862 *  0.899233 *  0.432199 *  -1.21800    1.000000    
    266 O2    c    0.565283 *  0.898618 *  0.432176 *  -1.21800    1.000000    
    267 O2    c    0.400499 *  0.898350 *  0.432230 *  -1.21800    1.000000    
    268 O2    c    0.232338 *  0.565672 *  0.431743 *  -1.21800    1.000000    
    269 O2    c    0.066024 *  0.567011 *  0.432032 *  -1.21800    1.000000    
    270 O2    c    0.899099 *  0.566080 *  0.432002 *  -1.21800    1.000000    
    271 O2    c    0.734235 *  0.566911 *  0.431880 *  -1.21800    1.000000    
    272 O2    c    0.565141 *  0.566728 *  0.432793 *  -1.21800    1.000000    
    273 O2    c    0.315041 *  0.667871 *  0.418068 *  -1.21800    1.000000    
    274 O2    c    0.315418 *  0.465048 *  0.417925 *  -1.21800    1.000000    
    275 O2    c    0.148952 *  0.334231 *  0.418192 *  -1.21800    1.000000    
    276 O2    c    0.148921 *  0.132084 *  0.418022 *  -1.21800    1.000000    
    277 O2    c    0.982187 *  0.334184 *  0.418162 *  -1.21800    1.000000    
    278 O2    c    0.981636 *  0.132137 *  0.417989 *  -1.21800    1.000000    
    279 O2    c    0.816046 *  0.333837 *  0.417802 *  -1.21800    1.000000    
    280 O2    c    0.815057 *  0.131851 *  0.418122 *  -1.21800    1.000000    
    281 O2    c    0.648619 *  0.334132 *  0.418156 *  -1.21800    1.000000    
    282 O2    c    0.648752 *  0.131604 *  0.418199 *  -1.21800    1.000000    
    283 O2    c    0.482289 *  0.334122 *  0.418124 *  -1.21800    1.000000    
    284 O2    c    0.482287 *  0.131694 *  0.418163 *  -1.21800    1.000000    
    285 O2    c    0.314918 *  0.334002 *  0.417869 *  -1.21800    1.000000    
    286 O2    c    0.316143 *  0.132067 *  0.417963 *  -1.21800    1.000000    
    287 O2    c    0.148933 *  0.001005 *  0.418474 *  -1.21800    1.000000    
    288 O2    c    0.149054 *  0.796224 *  0.418888 *  -1.21800    1.000000    
    289 O2    c    0.981938 *  0.000841 *  0.418186 *  -1.21800    1.000000    
    290 O2    c    0.981195 *  0.797873 *  0.417820 *  -1.21800    1.000000    
    291 O2    c    0.815221 *  0.000602 *  0.418103 *  -1.21800    1.000000    
    292 O2    c    0.814986 *  0.797978 *  0.418137 *  -1.21800    1.000000    
    293 O2    c    0.648654 *  0.000348 *  0.418171 *  -1.21800    1.000000    
    294 O2    c    0.648893 *  0.797936 *  0.418200 *  -1.21800    1.000000    
    295 O2    c    0.482204 *  0.000330 *  0.418090 *  -1.21800    1.000000    
    296 O2    c    0.482776 *  0.797867 *  0.417813 *  -1.21800    1.000000    
    297 O2    c    0.315824 *  0.000644 *  0.418155 *  -1.21800    1.000000    
    298 O2    c    0.315708 *  0.796565 *  0.418572 *  -1.21800    1.000000    
    299 O2    c    0.149276 *  0.667813 *  0.418288 *  -1.21800    1.000000    
    300 O2    c    0.148812 *  0.465191 *  0.418116 *  -1.21800    1.000000    
    301 O2    c    0.981247 *  0.666646 *  0.417518 *  -1.21800    1.000000    
    302 O2    c    0.982555 *  0.465061 *  0.418168 *  -1.21800    1.000000    
    303 O2    c    0.815571 *  0.667137 *  0.417955 *  -1.21800    1.000000    
    304 O2    c    0.815732 *  0.464802 *  0.417952 *  -1.21800    1.000000    
    305 O2    c    0.648820 *  0.667000 *  0.418297 *  -1.21800    1.000000    
    306 O2    c    0.648609 *  0.463798 *  0.418433 *  -1.21800    1.000000    
    307 O2    c    0.482802 *  0.666783 *  0.417899 *  -1.21800    1.000000    
    308 O2    c    0.481929 *  0.464050 *  0.418403 *  -1.21800    1.000000    
    309 O2    c    0.399860 *  0.565840 *  0.403492 *  -1.21800    1.000000    
    310 O2    c    0.232025 *  0.232924 *  0.403472 *  -1.21800    1.000000    
    311 O2    c    0.065495 *  0.233234 *  0.403510 *  -1.21800    1.000000    
    312 O2    c    0.898884 *  0.232835 *  0.403478 *  -1.21800    1.000000    
    313 O2    c    0.731789 *  0.232963 *  0.403503 *  -1.21800    1.000000    
    314 O2    c    0.565492 *  0.233080 *  0.403575 *  -1.21800    1.000000    
    315 O2    c    0.399213 *  0.233188 *  0.403508 *  -1.21800    1.000000    
    316 O2    c    0.231065 *  0.897897 *  0.404333 *  -1.21800    1.000000    
    317 O2    c    0.066919 *  0.898504 *  0.404324 *  -1.21800    1.000000    
    318 O2    c    0.899311 *  0.899502 *  0.403706 *  -1.21800    1.000000    
    319 O2    c    0.732007 *  0.899294 *  0.403560 *  -1.21800    1.000000    
    320 O2    c    0.565636 *  0.899396 *  0.403538 *  -1.21800    1.000000    
    321 O2    c    0.397876 *  0.898478 *  0.403732 *  -1.21800    1.000000    
    322 O2    c    0.231865 *  0.566828 *  0.403249 *  -1.21800    1.000000    
    323 O2    c    0.065604 *  0.566420 *  0.403354 *  -1.21800    1.000000    
    324 O2    c    0.898867 *  0.565385 *  0.403332 *  -1.21800    1.000000    
    325 O2    c    0.731051 *  0.565240 *  0.403534 *  -1.21800    1.000000    
    326 O2    c    0.565591 *  0.564654 *  0.403892 *  -1.21800    1.000000    
    327 O2    c    0.398373 *  0.732343 *  0.395510 *  -1.21800    1.000000    
    328 O2    c    0.232110 *  0.399745 *  0.395750 *  -1.21800    1.000000    
    329 O2    c    0.065582 *  0.399545 *  0.395801 *  -1.21800    1.000000    
    330 O2    c    0.898939 *  0.399622 *  0.395750 *  -1.21800    1.000000    
    331 O2    c    0.731786 *  0.399335 *  0.395597 *  -1.21800    1.000000    
    332 O2    c    0.565427 *  0.399399 *  0.395606 *  -1.21800    1.000000    
    333 O2    c    0.399093 *  0.399374 *  0.395625 *  -1.21800    1.000000    
    334 O2    c    0.232202 *  0.066164 *  0.395865 *  -1.21800    1.000000    
    335 O2    c    0.065534 *  0.066235 *  0.395870 *  -1.21800    1.000000    
    336 O2    c    0.898594 *  0.066237 *  0.395857 *  -1.21800    1.000000    
    337 O2    c    0.731921 *  0.066084 *  0.395846 *  -1.21800    1.000000    
    338 O2    c    0.565532 *  0.066116 *  0.395845 *  -1.21800    1.000000    
    339 O2    c    0.399037 *  0.066100 *  0.395847 *  -1.21800    1.000000    
    340 O2    c    0.231992 *  0.732581 *  0.395518 *  -1.21800    1.000000    
    341 O2    c    0.066182 *  0.732381 *  0.395438 *  -1.21800    1.000000    
    342 O2    c    0.898850 *  0.732584 *  0.395710 *  -1.21800    1.000000    
    343 O2    c    0.731944 *  0.732447 *  0.395847 *  -1.21800    1.000000    
    344 O2    c    0.565415 *  0.732384 *  0.395802 *  -1.21800    1.000000    
    345 O2    c    0.315584 *  0.501356 *  0.381360 *  -1.21800    1.000000    
    346 O2    c    0.315660 *  0.630688 *  0.381294 *  -1.21800    1.000000    
    347 O2    c    0.148812 *  0.167982 *  0.381342 *  -1.21800    1.000000    
    348 O2    c    0.148874 *  0.297650 *  0.381306 *  -1.21800    1.000000    
    349 O2    c    0.982163 *  0.167964 *  0.381342 *  -1.21800    1.000000    
    350 O2    c    0.982162 *  0.297614 *  0.381310 *  -1.21800    1.000000    
    351 O2    c    0.815371 *  0.167961 *  0.381370 *  -1.21800    1.000000    
    352 O2    c    0.815452 *  0.297535 *  0.381304 *  -1.21800    1.000000    
    353 O2    c    0.648718 *  0.167917 *  0.381360 *  -1.21800    1.000000    
    354 O2    c    0.648711 *  0.297550 *  0.381270 *  -1.21800    1.000000    
    355 O2    c    0.482204 *  0.167912 *  0.381370 *  -1.21800    1.000000    
    356 O2    c    0.482193 *  0.297574 *  0.381262 *  -1.21800    1.000000    
    357 O2    c    0.315601 *  0.167987 *  0.381386 *  -1.21800    1.000000    
    358 O2    c    0.315497 *  0.297587 *  0.381312 *  -1.21800    1.000000    
    359 O2    c    0.148881 *  0.834049 *  0.381430 *  -1.21800    1.000000    
    360 O2    c    0.148911 *  0.964204 *  0.381640 *  -1.21800    1.000000    
    361 O2    c    0.982526 *  0.834383 *  0.381530 *  -1.21800    1.000000    
    362 O2    c    0.982547 *  0.964062 *  0.381671 *  -1.21800    1.000000    
    363 O2    c    0.815541 *  0.834491 *  0.381469 *  -1.21800    1.000000    
    364 O2    c    0.815513 *  0.964081 *  0.381468 *  -1.21800    1.000000    
    365 O2    c    0.648777 *  0.834425 *  0.381385 *  -1.21800    1.000000    
    366 O2    c    0.648768 *  0.964116 *  0.381363 *  -1.21800    1.000000    
    367 O2    c    0.481966 *  0.834402 *  0.381429 *  -1.21800    1.000000    
    368 O2    c    0.481931 *  0.963930 *  0.381516 *  -1.21800    1.000000    
    369 O2    c    0.315118 *  0.834211 *  0.381523 *  -1.21800    1.000000    
    370 O2    c    0.315146 *  0.963931 *  0.381701 *  -1.21800    1.000000    
    371 O2    c    0.148807 *  0.501348 *  0.381250 *  -1.21800    1.000000    
    372 O2    c    0.148876 *  0.630861 *  0.381116 *  -1.21800    1.000000    
    373 O2    c    0.982291 *  0.501232 *  0.381229 *  -1.21800    1.000000    
    374 O2    c    0.982100 *  0.630787 *  0.381158 *  -1.21800    1.000000    
    375 O2    c    0.815319 *  0.501119 *  0.381287 *  -1.21800    1.000000    
    376 O2    c    0.815269 *  0.630563 *  0.381401 *  -1.21800    1.000000    
    377 O2    c    0.648589 *  0.500871 *  0.381241 *  -1.21800    1.000000    
    378 O2    c    0.648536 *  0.630681 *  0.381391 *  -1.21800    1.000000    
    379 O2    c    0.482267 *  0.500961 *  0.381262 *  -1.21800    1.000000    
    380 O2    c    0.482381 *  0.630752 *  0.381312 *  -1.21800    1.000000    
    381 O2    c    0.399087 *  0.732581 *  0.366692 *  -1.21800    1.000000    
    382 O2    c    0.232102 *  0.399608 *  0.366797 *  -1.21800    1.000000    
    383 O2    c    0.065522 *  0.399458 *  0.366822 *  -1.21800    1.000000    
    384 O2    c    0.898939 *  0.399411 *  0.366793 *  -1.21800    1.000000    
    385 O2    c    0.732351 *  0.399223 *  0.366708 *  -1.21800    1.000000    
    386 O2    c    0.565425 *  0.399110 *  0.366666 *  -1.21800    1.000000    
    387 O2    c    0.398561 *  0.399422 *  0.366721 *  -1.21800    1.000000    
    388 O2    c    0.232240 *  0.066109 *  0.366975 *  -1.21800    1.000000    
    389 O2    c    0.065455 *  0.066072 *  0.366975 *  -1.21800    1.000000    
    390 O2    c    0.898856 *  0.065894 *  0.366963 *  -1.21800    1.000000    
    391 O2    c    0.732166 *  0.066000 *  0.366926 *  -1.21800    1.000000    
    392 O2    c    0.565380 *  0.065879 *  0.366924 *  -1.21800    1.000000    
    393 O2    c    0.398739 *  0.065802 *  0.366957 *  -1.21800    1.000000    
    394 O2    c    0.232349 *  0.732184 *  0.366598 *  -1.21800    1.000000    
    395 O2    c    0.065113 *  0.732368 *  0.366627 *  -1.21800    1.000000    
    396 O2    c    0.898425 *  0.732578 *  0.366805 *  -1.21800    1.000000    
    397 O2    c    0.732126 *  0.732570 *  0.366903 *  -1.21800    1.000000    
    398 O2    c    0.565688 *  0.732803 *  0.366834 *  -1.21800    1.000000    
    399 O2    c    0.398605 *  0.565959 *  0.359136 *  -1.21800    1.000000    
    400 O2    c    0.232212 *  0.232772 *  0.359180 *  -1.21800    1.000000    
    401 O2    c    0.065493 *  0.232808 *  0.359189 *  -1.21800    1.000000    
    402 O2    c    0.898767 *  0.232746 *  0.359181 *  -1.21800    1.000000    
    403 O2    c    0.732108 *  0.232739 *  0.359173 *  -1.21800    1.000000    
    404 O2    c    0.565464 *  0.232709 *  0.359180 *  -1.21800    1.000000    
    405 O2    c    0.398824 *  0.232750 *  0.359179 *  -1.21800    1.000000    
    406 O2    c    0.232353 *  0.899187 *  0.359627 *  -1.21800    1.000000    
    407 O2    c    0.065398 *  0.899247 *  0.359635 *  -1.21800    1.000000    
    408 O2    c    0.898711 *  0.899245 *  0.359417 *  -1.21800    1.000000    
    409 O2    c    0.732081 *  0.899226 *  0.359270 *  -1.21800    1.000000    
    410 O2    c    0.565413 *  0.899232 *  0.359258 *  -1.21800    1.000000    
    411 O2    c    0.398877 *  0.899194 *  0.359390 *  -1.21800    1.000000    
    412 O2    c    0.232203 *  0.565977 *  0.358996 *  -1.21800    1.000000    
    413 O2    c    0.065587 *  0.565993 *  0.359008 *  -1.21800    1.000000    
    414 O2    c    0.898840 *  0.565938 *  0.359078 *  -1.21800    1.000000    
    415 O2    c    0.732219 *  0.565950 *  0.359202 *  -1.21800    1.000000    
    416 O2    c    0.565392 *  0.565910 *  0.359280 *  -1.21800    1.000000    
    417 O2    c    0.315578 *  0.667092 *  0.344397 *  -1.21800    1.000000    
    418 O2    c    0.315448 *  0.464875 *  0.344422 *  -1.21800    1.000000    
    419 O2    c    0.148834 *  0.333850 *  0.344508 *  -1.21800    1.000000    
    420 O2    c    0.148831 *  0.131552 *  0.344626 *  -1.21800    1.000000    
    421 O2    c    0.982168 *  0.333825 *  0.344499 *  -1.21800    1.000000    
    422 O2    c    0.982140 *  0.131543 *  0.344615 *  -1.21800    1.000000    
    423 O2    c    0.815530 *  0.333789 *  0.344463 *  -1.21800    1.000000    
    424 O2    c    0.815479 *  0.131520 *  0.344604 *  -1.21800    1.000000    
    425 O2    c    0.648820 *  0.333789 *  0.344448 *  -1.21800    1.000000    
    426 O2    c    0.648774 *  0.131502 *  0.344598 *  -1.21800    1.000000    
    427 O2    c    0.482085 *  0.333811 *  0.344456 *  -1.21800    1.000000    
    428 O2    c    0.482112 *  0.131501 *  0.344608 *  -1.21800    1.000000    
    429 O2    c    0.315435 *  0.333832 *  0.344478 *  -1.21800    1.000000    
    430 O2    c    0.315515 *  0.131538 *  0.344613 *  -1.21800    1.000000    
    431 O2    c    0.148853 *  0.000429 *  0.344786 *  -1.21800    1.000000    
    432 O2    c    0.148830 *  0.798014 *  0.344631 *  -1.21800    1.000000    
    433 O2    c    0.982190 *  0.000422 *  0.344730 *  -1.21800    1.000000    
    434 O2    c    0.982050 *  0.798108 *  0.344594 *  -1.21800    1.000000    
    435 O2    c    0.815493 *  0.000443 *  0.344652 *  -1.21800    1.000000    
    436 O2    c    0.815410 *  0.798162 *  0.344566 *  -1.21800    1.000000    
    437 O2    c    0.648783 *  0.000450 *  0.344618 *  -1.21800    1.000000    
    438 O2    c    0.648834 *  0.798169 *  0.344544 *  -1.21800    1.000000    
    439 O2    c    0.482081 *  0.000413 *  0.344643 *  -1.21800    1.000000    
    440 O2    c    0.482190 *  0.798140 *  0.344527 *  -1.21800    1.000000    
    441 O2    c    0.315442 *  0.000404 *  0.344721 *  -1.21800    1.000000    
    442 O2    c    0.315508 *  0.798053 *  0.344570 *  -1.21800    1.000000    
    443 O2    c    0.148815 *  0.667108 *  0.344370 *  -1.21800    1.000000    
    444 O2    c    0.148831 *  0.464885 *  0.344427 *  -1.21800    1.000000    
    445 O2    c    0.982011 *  0.667072 *  0.344408 *  -1.21800    1.000000    
    446 O2    c    0.982186 *  0.464867 *  0.344443 *  -1.21800    1.000000    
    447 O2    c    0.815393 *  0.667051 *  0.344504 *  -1.21800    1.000000    
    448 O2    c    0.815507 *  0.464822 *  0.344456 *  -1.21800    1.000000    
    449 O2    c    0.648798 *  0.667070 *  0.344560 *  -1.21800    1.000000    
    450 O2    c    0.648800 *  0.464769 *  0.344491 *  -1.21800    1.000000    
    451 O2    c    0.482234 *  0.667089 *  0.344507 *  -1.21800    1.000000    
    452 O2    c    0.482098 *  0.464801 *  0.344475 *  -1.21800    1.000000    
    453 O2    c    0.399085 *  0.565979 *  0.330501 *  -1.21800    1.000000    
    454 O2    c    0.232142 *  0.232693 *  0.330570 *  -1.21800    1.000000    
    455 O2    c    0.065496 *  0.232699 *  0.330578 *  -1.21800    1.000000    
    456 O2    c    0.898830 *  0.232653 *  0.330569 *  -1.21800    1.000000    
    457 O2    c    0.732129 *  0.232614 *  0.330557 *  -1.21800    1.000000    
    458 O2    c    0.565452 *  0.232643 *  0.330557 *  -1.21800    1.000000    
    459 O2    c    0.398815 *  0.232678 *  0.330561 *  -1.21800    1.000000    
    460 O2    c    0.231920 *  0.899132 *  0.330922 *  -1.21800    1.000000    
    461 O2    c    0.065696 *  0.899161 *  0.330938 *  -1.21800    1.000000    
    462 O2    c    0.899106 *  0.899303 *  0.330792 *  -1.21800    1.000000    
    463 O2    c    0.732254 *  0.899391 *  0.330671 *  -1.21800    1.000000    
    464 O2    c    0.565371 *  0.899347 *  0.330655 *  -1.21800    1.000000    
    465 O2    c    0.398491 *  0.899233 *  0.330760 *  -1.21800    1.000000    
    466 O2    c    0.232249 *  0.566063 *  0.330397 *  -1.21800    1.000000    
    467 O2    c    0.065415 *  0.566032 *  0.330403 *  -1.21800    1.000000    
    468 O2    c    0.898641 *  0.565935 *  0.330472 *  -1.21800    1.000000    
    469 O2    c    0.731933 *  0.565883 *  0.330569 *  -1.21800    1.000000    
    470 O2    c    0.565525 *  0.565892 *  0.330605 *  -1.21800    1.000000    
    471 O2    c    0.398746 *  0.732634 *  0.321772 *  -1.21800    1.000000    
    472 O2    c    0.232180 *  0.399269 *  0.321786 *  -1.21800    1.000000    
    473 O2    c    0.065505 *  0.399274 *  0.321807 *  -1.21800    1.000000    
    474 O2    c    0.898800 *  0.399299 *  0.321795 *  -1.21800    1.000000    
    475 O2    c    0.732091 *  0.399318 *  0.321761 *  -1.21800    1.000000    
    476 O2    c    0.565451 *  0.399329 *  0.321739 *  -1.21800    1.000000    
    477 O2    c    0.398837 *  0.399297 *  0.321755 *  -1.21800    1.000000    
    478 O2    c    0.232164 *  0.065959 *  0.322020 *  -1.21800    1.000000    
    479 O2    c    0.065504 *  0.065950 *  0.322025 *  -1.21800    1.000000    
    480 O2    c    0.898802 *  0.065977 *  0.321990 *  -1.21800    1.000000    
    481 O2    c    0.732114 *  0.065993 *  0.321950 *  -1.21800    1.000000    
    482 O2    c    0.565452 *  0.065990 *  0.321945 *  -1.21800    1.000000    
    483 O2    c    0.398815 *  0.065976 *  0.321980 *  -1.21800    1.000000    
    484 O2    c    0.232148 *  0.732705 *  0.321714 *  -1.21800    1.000000    
    485 O2    c    0.065565 *  0.732711 *  0.321754 *  -1.21800    1.000000    
    486 O2    c    0.898856 *  0.732654 *  0.321842 *  -1.21800    1.000000    
    487 O2    c    0.732118 *  0.732591 *  0.321897 *  -1.21800    1.000000    
    488 O2    c    0.565406 *  0.732583 *  0.321859 *  -1.21800    1.000000    
    489 O2    c    0.315596 *  0.505358 *  0.306767 *  -1.21800    1.000000    
    490 O2    c    0.148811 *  0.171924 *  0.306935 *  -1.21800    1.000000    
    491 O2    c    0.982153 *  0.171921 *  0.306923 *  -1.21800    1.000000    
    492 O2    c    0.815489 *  0.171918 *  0.306893 *  -1.21800    1.000000    
    493 O2    c    0.648797 *  0.171916 *  0.306876 *  -1.21800    1.000000    
    494 O2    c    0.482128 *  0.171916 *  0.306886 *  -1.21800    1.000000    
    495 O2    c    0.315481 *  0.171923 *  0.306917 *  -1.21800    1.000000    
    496 O2    c    0.148808 *  0.838604 *  0.306998 *  -1.21800    1.000000    
    497 O2    c    0.982301 *  0.838638 *  0.307015 *  -1.21800    1.000000    
    498 O2    c    0.815613 *  0.838679 *  0.306990 *  -1.21800    1.000000    
    499 O2    c    0.648824 *  0.838690 *  0.306957 *  -1.21800    1.000000    
    500 O2    c    0.482001 *  0.838678 *  0.306950 *  -1.21800    1.000000    
    501 O2    c    0.315299 *  0.838636 *  0.306971 *  -1.21800    1.000000    
    502 O2    c    0.148818 *  0.505366 *  0.306747 *  -1.21800    1.000000    
    503 O2    c    0.982067 *  0.505348 *  0.306759 *  -1.21800    1.000000    
    504 O2    c    0.815356 *  0.505326 *  0.306791 *  -1.21800    1.000000    
    505 O2    c    0.648765 *  0.505299 *  0.306802 *  -1.21800    1.000000    
    506 O2    c    0.482250 *  0.505312 *  0.306788 *  -1.21800    1.000000    
    507 O2    c    0.315608 *  0.626673 *  0.306736 *  -1.21800    1.000000    
    508 O2    c    0.148821 *  0.293269 *  0.306817 *  -1.21800    1.000000    
    509 O2    c    0.982161 *  0.293265 *  0.306826 *  -1.21800    1.000000    
    510 O2    c    0.815486 *  0.293254 *  0.306822 *  -1.21800    1.000000    
    511 O2    c    0.648807 *  0.293249 *  0.306809 *  -1.21800    1.000000    
    512 O2    c    0.482125 *  0.293257 *  0.306801 *  -1.21800    1.000000    
    513 O2    c    0.315462 *  0.293266 *  0.306807 *  -1.21800    1.000000    
    514 O2    c    0.148801 *  0.959994 *  0.307166 *  -1.21800    1.000000    
    515 O2    c    0.982309 *  0.959978 *  0.307126 *  -1.21800    1.000000    
    516 O2    c    0.815613 *  0.959965 *  0.307019 *  -1.21800    1.000000    
    517 O2    c    0.648814 *  0.959959 *  0.306959 *  -1.21800    1.000000    
    518 O2    c    0.482012 *  0.959951 *  0.307008 *  -1.21800    1.000000    
    519 O2    c    0.315299 *  0.959969 *  0.307114 *  -1.21800    1.000000    
    520 O2    c    0.148818 *  0.626671 *  0.306699 *  -1.21800    1.000000    
    521 O2    c    0.982053 *  0.626677 *  0.306750 *  -1.21800    1.000000    
    522 O2    c    0.815358 *  0.626678 *  0.306837 *  -1.21800    1.000000    
    523 O2    c    0.648761 *  0.626698 *  0.306868 *  -1.21800    1.000000    
    524 O2    c    0.482250 *  0.626700 *  0.306817 *  -1.21800    1.000000    
    525 O2    c    0.398957 *  0.732854 *  0.294123 *  -1.21800    1.000000    
    526 O2    c    0.232103 *  0.399434 *  0.294136 *  -1.21800    1.000000    
    527 O2    c    0.065462 *  0.399368 *  0.294153 *  -1.21800    1.000000    
    528 O2    c    0.898838 *  0.399297 *  0.294143 *  -1.21800    1.000000    
    529 O2    c    0.732198 *  0.399191 *  0.294110 *  -1.21800    1.000000    
    530 O2    c    0.565491 *  0.399140 *  0.294088 *  -1.21800    1.000000    
    531 O2    c    0.398769 *  0.399305 *  0.294104 *  -1.21800    1.000000    
    532 O2    c    0.232082 *  0.065865 *  0.294365 *  -1.21800    1.000000    
    533 O2    c    0.065516 *  0.065870 *  0.294369 *  -1.21800    1.000000    
    534 O2    c    0.898922 *  0.065777 *  0.294340 *  -1.21800    1.000000    
    535 O2    c    0.732209 *  0.065794 *  0.294304 *  -1.21800    1.000000    
    536 O2    c    0.565427 *  0.065767 *  0.294299 *  -1.21800    1.000000    
    537 O2    c    0.398697 *  0.065740 *  0.294331 *  -1.21800    1.000000    
    538 O2    c    0.232165 *  0.732615 *  0.294070 *  -1.21800    1.000000    
    539 O2    c    0.065329 *  0.732667 *  0.294105 *  -1.21800    1.000000    
    540 O2    c    0.898656 *  0.732823 *  0.294191 *  -1.21800    1.000000    
    541 O2    c    0.732131 *  0.732920 *  0.294241 *  -1.21800    1.000000    
    542 O2    c    0.565605 *  0.733006 *  0.294206 *  -1.21800    1.000000    
    543 O176  c    0.566110 *  0.527945 *  0.475329 *  -1.08000    1.000000    
    544 O170  c    0.074912 *  0.927623 *  0.557313 *  -1.08000    1.000000    
    545 O176  c    0.566456 *  0.416035 *  0.469633 *  -1.08000    1.000000    
    546 O170  c    0.198987 *  0.924492 *  0.558106 *  -1.08000    1.000000    
    547 O176  c    0.212721 *  0.893695 *  0.476681 *  -1.08000    1.000000    
    548 O170  c    0.618814 *  0.487076 *  0.553495 *  -1.08000    1.000000    
    549 O176  c    0.088014 *  0.897642 *  0.476387 *  -1.08000    1.000000    
    550 O170  c    0.621505 *  0.374156 *  0.552176 *  -1.08000    1.000000    
    551 O171  c    0.131509 *  0.930241 *  0.591890 *  -2.00000    1.000000    
    552 O171  c    0.631355 *  0.430124 *  0.586970 *  -2.00000    1.000000    
    553 O170  c    0.217065 *  0.789264 *  0.600804 *  -1.08000    1.000000    
    554 O170  c    0.980906 *  0.013341 *  0.581691 *  -1.08000    1.000000    
    555 O170  c    0.285260 *  0.847691 *  0.584197 *  -1.08000    1.000000    
    556 O170  c    0.042879 *  0.070294 *  0.599553 *  -1.08000    1.000000    
    557 O170  c    0.283550 *  0.013122 *  0.583085 *  -1.08000    1.000000    
    558 O170  c    0.979976 *  0.847446 *  0.582060 *  -1.08000    1.000000    
    559 O170  c    0.218001 *  0.070884 *  0.600257 *  -1.08000    1.000000    
    560 O170  c    0.042587 *  0.790589 *  0.599845 *  -1.08000    1.000000    
    561 O170  c    0.128066 *  0.987945 *  0.625970 *  -1.08000    1.000000    
    562 O173  c    0.572313 *  0.421727 *  0.701523 *  -0.69000    1.000000    
    563 O170  c    0.127204 *  0.874832 *  0.626074 *  -1.08000    1.000000    
    564 O172  c    0.701012 *  0.422436 *  0.701551 *  -0.69000    1.000000    
    565 H21   c    0.697587 *  0.421556 *  0.712688 *   0.22000    1.000000    
    566 O170  c    0.695809 *  0.428337 *  0.621130 *  -1.08000    1.000000    
    567 O172  c    0.117900 *  0.990910 *  0.706375 *  -0.69000    1.000000    
    568 H21   c    0.116409 *  0.987551 *  0.717505 *   0.22000    1.000000    
    569 O170  c    0.571630 *  0.427662 *  0.621372 *  -1.08000    1.000000    
    570 O173  c    0.117012 *  0.873705 *  0.706218 *  -0.69000    1.000000    
    571 O170  c    0.479481 *  0.346943 *  0.596245 *  -1.08000    1.000000    
    572 O170  c    0.719748 *  0.569314 *  0.578046 *  -1.08000    1.000000    
    573 O170  c    0.544916 *  0.289354 *  0.579022 *  -1.08000    1.000000    
    574 O170  c    0.782982 *  0.513035 *  0.595825 *  -1.08000    1.000000    
    575 O170  c    0.719750 *  0.291962 *  0.577520 *  -1.08000    1.000000    
    576 O170  c    0.545551 *  0.572671 *  0.580260 *  -1.08000    1.000000    
    577 O170  c    0.783488 *  0.346902 *  0.595449 *  -1.08000    1.000000    
    578 O170  c    0.479473 *  0.512124 *  0.596835 *  -1.08000    1.000000    
    579 C912  c    0.585714 *  0.510421 *  0.506350 *  -0.07025    1.000000    
    580 C912  c    0.075379 *  0.917733 *  0.524582 *  -0.07025    1.000000    
    581 C912  c    0.587876 *  0.388313 *  0.503170 *  -0.07025    1.000000    
    582 C912  c    0.210232 *  0.914310 *  0.525769 *  -0.07025    1.000000    
    583 C912  c    0.213553 *  0.908221 *  0.509814 *  -0.07025    1.000000    
    584 C912  c    0.596805 *  0.502820 *  0.522088 *  -0.07025    1.000000    
    585 C912  c    0.078693 *  0.911879 *  0.508635 *  -0.07025    1.000000    
    586 C912  c    0.598749 *  0.380767 *  0.519001 *  -0.07025    1.000000    
    587 C916  c    0.570415 *  0.465654 *  0.479614 *   1.07050    1.000000    
    588 C913  c    0.137984 *  0.924090 *  0.550581 *   1.07050    1.000000    
    589 C916  c    0.149941 *  0.899006 *  0.483823 *   1.07050    1.000000    
    590 C913  c    0.615459 *  0.432133 *  0.545761 *   1.07050    1.000000    
    591 C902  c    0.581562 *  0.453416 *  0.496863 *   0.00500    1.000000    
    592 C902  c    0.141209 *  0.918608 *  0.533095 *   0.00500    1.000000    
    593 C902  c    0.147636 *  0.906660 *  0.501298 *   0.00500    1.000000    
    594 C902  c    0.603338 *  0.438133 *  0.528404 *   0.00500    1.000000    
    595 C912  c    0.319161 *  0.675953 *  0.600214 *  -0.07025    1.000000    
    596 C912  c    0.871806 *  0.123665 *  0.578974 *  -0.07025    1.000000    
    597 C912  c    0.393993 *  0.738840 *  0.582138 *  -0.07025    1.000000    
    598 C912  c    0.941660 *  0.182915 *  0.598451 *  -0.07025    1.000000    
    599 C912  c    0.392470 *  0.122206 *  0.580692 *  -0.07025    1.000000    
    600 C912  c    0.871046 *  0.736952 *  0.579523 *  -0.07025    1.000000    
    601 C912  c    0.320094 *  0.183821 *  0.599404 *  -0.07025    1.000000    
    602 C912  c    0.941669 *  0.677799 *  0.598900 *  -0.07025    1.000000    
    603 C912  c    0.124197 *  0.993531 *  0.658622 *  -0.07025    1.000000    
    604 C912  c    0.568514 *  0.424264 *  0.670082 *  -0.07025    1.000000    
    605 C912  c    0.123249 *  0.870586 *  0.658753 *  -0.07025    1.000000    
    606 C912  c    0.703627 *  0.425025 *  0.669814 *  -0.07025    1.000000    
    607 C912  c    0.702759 *  0.426173 *  0.653784 *  -0.07025    1.000000    
    608 C912  c    0.122195 *  0.993972 *  0.674649 *  -0.07025    1.000000    
    609 C912  c    0.567769 *  0.425428 *  0.654056 *  -0.07025    1.000000    
    610 C912  c    0.121232 *  0.870916 *  0.674777 *  -0.07025    1.000000    
    611 C912  c    0.370696 *  0.237803 *  0.598651 *  -0.07025    1.000000    
    612 C912  c    0.821066 *  0.682432 *  0.578812 *  -0.07025    1.000000    
    613 C912  c    0.442994 *  0.176244 *  0.579916 *  -0.07025    1.000000    
    614 C912  c    0.891729 *  0.623273 *  0.598182 *  -0.07025    1.000000    
    615 C912  c    0.821636 *  0.178051 *  0.578198 *  -0.07025    1.000000    
    616 C912  c    0.444382 *  0.684729 *  0.581413 *  -0.07025    1.000000    
    617 C912  c    0.891484 *  0.237229 *  0.597688 *  -0.07025    1.000000    
    618 C912  c    0.369610 *  0.621809 *  0.599494 *  -0.07025    1.000000    
    619 C913  c    0.274582 *  0.794267 *  0.592233 *   1.07050    1.000000    
    620 C913  c    0.988416 *  0.065999 *  0.590144 *   1.07050    1.000000    
    621 C913  c    0.274203 *  0.066213 *  0.591307 *   1.07050    1.000000    
    622 C913  c    0.987819 *  0.794840 *  0.590516 *   1.07050    1.000000    
    623 C913  c    0.126801 *  0.931521 *  0.633164 *   1.07050    1.000000    
    624 C914  c    0.636773 *  0.422593 *  0.695481 *   1.07050    1.000000    
    625 C913  c    0.634051 *  0.427534 *  0.628393 *   1.07050    1.000000    
    626 C914  c    0.118292 *  0.932535 *  0.700241 *   1.07050    1.000000    
    627 C913  c    0.488835 *  0.293894 *  0.588007 *   1.07050    1.000000    
    628 C913  c    0.774861 *  0.565400 *  0.587300 *   1.07050    1.000000    
    629 C913  c    0.774932 *  0.295063 *  0.586781 *   1.07050    1.000000    
    630 C913  c    0.488944 *  0.566451 *  0.589042 *   1.07050    1.000000    
    631 C902  c    0.330835 *  0.734788 *  0.591516 *   0.00500    1.000000    
    632 C902  c    0.932299 *  0.125649 *  0.589126 *   0.00500    1.000000    
    633 C902  c    0.330532 *  0.125617 *  0.590435 *   0.00500    1.000000    
    634 C902  c    0.931847 *  0.735067 *  0.589589 *   0.00500    1.000000    
    635 C902  c    0.124689 *  0.931883 *  0.650726 *   0.00500    1.000000    
    636 C902  c    0.636426 *  0.424019 *  0.677919 *   0.00500    1.000000    
    637 C902  c    0.634881 *  0.426346 *  0.645957 *   0.00500    1.000000    
    638 C902  c    0.120660 *  0.932595 *  0.682683 *   0.00500    1.000000    
    639 C902  c    0.432577 *  0.234435 *  0.588892 *   0.00500    1.000000    
    640 C902  c    0.830857 *  0.625188 *  0.588137 *   0.00500    1.000000    
    641 C902  c    0.830905 *  0.235228 *  0.587570 *   0.00500    1.000000    
    642 C902  c    0.432606 *  0.625786 *  0.590053 *   0.00500    1.000000    
    643 H915  c    0.580629 *  0.561126 *  0.501251 *   0.11250    1.000000    
    644 H915  c    0.021768 *  0.921548 *  0.530568 *   0.11250    1.000000    
    645 H915  c    0.584659 *  0.343508 *  0.495740 *   0.11250    1.000000    
    646 H915  c    0.261158 *  0.915510 *  0.532732 *   0.11250    1.000000    
    647 H915  c    0.267295 *  0.904781 *  0.503885 *   0.11250    1.000000    
    648 H915  c    0.600520 *  0.547098 *  0.529696 *   0.11250    1.000000    
    649 H915  c    0.027619 *  0.911029 *  0.501725 *   0.11250    1.000000    
    650 H915  c    0.604048 *  0.330302 *  0.524203 *   0.11250    1.000000    
    651 H915  c    0.269676 *  0.672864 *  0.607577 *   0.11250    1.000000    
    652 H915  c    0.864263 *  0.078961 *  0.571630 *   0.11250    1.000000    
    653 H915  c    0.403289 *  0.784927 *  0.575339 *   0.11250    1.000000    
    654 H915  c    0.989079 *  0.184511 *  0.606396 *   0.11250    1.000000    
    655 H915  c    0.400752 *  0.076662 *  0.573653 *   0.11250    1.000000    
    656 H915  c    0.863101 *  0.781677 *  0.572204 *   0.11250    1.000000    
    657 H915  c    0.271555 *  0.186462 *  0.607039 *   0.11250    1.000000    
    658 H915  c    0.989338 *  0.676328 *  0.606782 *   0.11250    1.000000    
    659 H915  c    0.125390 *  0.041042 *  0.652057 *   0.11250    1.000000    
    660 H915  c    0.516244 *  0.423509 *  0.676625 *   0.11250    1.000000    
    661 H915  c    0.123700 *  0.822750 *  0.652307 *   0.11250    1.000000    
    662 H915  c    0.756615 *  0.424866 *  0.676098 *   0.11250    1.000000    
    663 H915  c    0.754767 *  0.426941 *  0.647163 *   0.11250    1.000000    
    664 H915  c    0.121776 *  0.042094 *  0.680986 *   0.11250    1.000000    
    665 H915  c    0.515092 *  0.425612 *  0.647663 *   0.11250    1.000000    
    666 H915  c    0.120056 *  0.823169 *  0.681264 *   0.11250    1.000000    
    667 H915  c    0.362411 *  0.283342 *  0.605691 *   0.11250    1.000000    
    668 H915  c    0.773381 *  0.683949 *  0.570935 *   0.11250    1.000000    
    669 H915  c    0.491507 *  0.173597 *  0.572274 *   0.11250    1.000000    
    670 H915  c    0.899665 *  0.578565 *  0.605507 *   0.11250    1.000000    
    671 H915  c    0.774231 *  0.176402 *  0.570251 *   0.11250    1.000000    
    672 H915  c    0.493855 *  0.687790 *  0.574046 *   0.11250    1.000000    
    673 H915  c    0.898994 *  0.281927 *  0.605035 *   0.11250    1.000000    
    674 H915  c    0.360259 *  0.575731 *  0.606292 *   0.11250    1.000000    
    675 Zn172 c    0.129526 *  0.845258 *  0.604961 *   2.00000    1.000000    
    676 Zn172 c    0.039058 *  0.930115 *  0.578160 *   2.00000    1.000000    
    677 Zn172 c    0.227226 *  0.929454 *  0.579341 *   2.00000    1.000000    
    678 Zn172 c    0.130089 *  0.015808 *  0.604717 *   2.00000    1.000000    
    679 Zn172 c    0.725956 *  0.429402 *  0.599859 *   2.00000    1.000000    
    680 Zn172 c    0.629993 *  0.516016 *  0.574447 *   2.00000    1.000000    
    681 Zn172 c    0.537876 *  0.428994 *  0.600366 *   2.00000    1.000000    
    682 Zn172 c    0.630438 *  0.345587 *  0.573517 *   2.00000    1.000000    
--------------------------------------------------------------------------------



  Molecule list generated from bond lengths :

  Total number of molecules =    10

--------------------------------------------------------------------------------
Molecule No./:  Atoms
Periodicity  :  
--------------------------------------------------------------------------------
     1  0    : O3   c   186 H22  c   187
     2  0    : O3   c   195 H22  c   196
     3  0    : O176 c   543 O176 c   545 O170 c   548 O170 c   550 C912 c   579
             : C912 c   581 C912 c   584 C912 c   586 C916 c   587 C913 c   590
             : C902 c   591 C902 c   594 H915 c   643 H915 c   645 H915 c   648
             : H915 c   650
     4  0    : O170 c   544 O170 c   546 O176 c   547 O176 c   549 C912 c   580
             : C912 c   582 C912 c   583 C912 c   585 C913 c   588 C916 c   589
             : C902 c   592 C902 c   593 H915 c   644 H915 c   646 H915 c   647
             : H915 c   649
     5  0    : O170 c   553 O170 c   555 O170 c   576 O170 c   578 C912 c   595
             : C912 c   597 C912 c   616 C912 c   618 C913 c   619 C913 c   630
             : C902 c   631 C902 c   642 H915 c   651 H915 c   653 H915 c   672
             : H915 c   674
     6  0    : O170 c   554 O170 c   556 O170 c   575 O170 c   577 C912 c   596
             : C912 c   598 C912 c   615 C912 c   617 C913 c   620 C913 c   629
             : C902 c   632 C902 c   641 H915 c   652 H915 c   654 H915 c   671
             : H915 c   673
     7  0    : O170 c   557 O170 c   559 O170 c   571 O170 c   573 C912 c   599
             : C912 c   601 C912 c   611 C912 c   613 C913 c   621 C913 c   627
             : C902 c   633 C902 c   639 H915 c   655 H915 c   657 H915 c   667
             : H915 c   669
     8  0    : O170 c   558 O170 c   560 O170 c   572 O170 c   574 C912 c   600
             : C912 c   602 C912 c   612 C912 c   614 C913 c   622 C913 c   628
             : C902 c   634 C902 c   640 H915 c   656 H915 c   658 H915 c   668
             : H915 c   670
     9  0    : O170 c   561 O170 c   563 O172 c   567 H21  c   568 O173 c   570
             : C912 c   603 C912 c   605 C912 c   608 C912 c   610 C913 c   623
             : C914 c   626 C902 c   635 C902 c   638 H915 c   659 H915 c   661
             : H915 c   664 H915 c   666
    10  0    : O173 c   562 O172 c   564 H21  c   565 O170 c   566 O170 c   569
             : C912 c   604 C912 c   606 C912 c   607 C912 c   609 C914 c   624
             : C913 c   625 C902 c   636 C902 c   637 H915 c   660 H915 c   662
             : H915 c   663 H915 c   665
--------------------------------------------------------------------------------


********************************************************************************
*  General input information                                                   *
********************************************************************************

  Species output for all configurations : 

--------------------------------------------------------------------------------
  Species    Type    Atomic    Atomic    Charge       Radii (Angs)     Library
                     Number     Mass       (e)     Cova   Ionic  VDW   Symbol
--------------------------------------------------------------------------------
    C913     Core        6      12.01   1.070500   0.770  0.000  1.530          
    O170     Core        8      16.00  -1.080000   0.730  0.000  1.360          
    O172     Core        8      16.00  -0.690000   0.730  0.000  1.360          
    O173     Core        8      16.00  -0.690000   0.730  0.000  1.360          
    C914     Core        6      12.01   1.070500   0.770  0.000  1.530          
    O175     Core        8      16.00  -1.080000   0.730  0.000  1.360          
    C915     Core        6      12.01   1.070500   0.770  0.000  1.530          
    C917     Core        6      12.01   1.070500   0.770  0.000  1.530          
    O177     Core        8      16.00  -1.080000   0.730  0.000  1.360          
    O176     Core        8      16.00  -1.080000   0.730  0.000  1.360          
    C916     Core        6      12.01   1.070500   0.770  0.000  1.530          
    C902     Core        6      12.01   0.005000   0.770  0.000  1.530          
    H915     Core        1       1.01   0.112500   0.370  0.000  1.080          
    C912     Core        6      12.01  -0.070250   0.770  0.000  1.530          
    H21      Core        1       1.01   0.220000   0.370  0.000  1.080          
    H22      Core        1       1.01   0.120000   0.370  0.000  1.080          
    O2       Core        8      16.00  -1.218000   0.730  0.000  1.360          
    Ti       Core       22      47.88   2.436000   0.000  0.000  2.190          
    O3       Core        8      16.00  -0.338000   0.730  0.000  1.360          
    Zn172    Core       30      65.39   2.000000   0.000  0.000  2.160          
    O171     Core        8      16.00  -2.000000   0.730  0.000  1.360          
--------------------------------------------------------------------------------


  Lattice summation method               =    Ewald          (3-D)
                                         =    Parry          (2-D)
                                         =    Saunders et al (1-D)
  Accuracy factor for lattice sums       =   12.000


  Time limit = Infinity

  Maximum range for interatomic potentials =    100000.000000 Angstroms

  General interatomic potentials :

--------------------------------------------------------------------------------
Atom  Types   Potential      Parameter       Value         Units   Cutoffs(Ang)
  1     2                                                            Min /  Max 
--------------------------------------------------------------------------------
O175 c Zn172c MM3buck       MM3buck A        184000.00    None      3Bond 12.000
                            MM3buck B        11.500000    None      
                            MM3buck C        2.5500000    None      
                            MM3buck epsilon 0.31250271E-02eV        
                            MM3buck rv       3.9595000    Ang       
--------------------------------------------------------------------------------
O176 c Zn172c MM3buck       MM3buck A        184000.00    None      3Bond 12.000
                            MM3buck B        11.500000    None      
                            MM3buck C        2.5500000    None      
                            MM3buck epsilon 0.31250271E-02eV        
                            MM3buck rv       3.9595000    Ang       
--------------------------------------------------------------------------------
O177 c Zn172c MM3buck       MM3buck A        184000.00    None      3Bond 12.000
                            MM3buck B        11.500000    None      
                            MM3buck C        2.5500000    None      
                            MM3buck epsilon 0.31250271E-02eV        
                            MM3buck rv       3.9595000    Ang       
--------------------------------------------------------------------------------
O170 c Zn172c MM3buck       MM3buck A        184000.00    None      3Bond 12.000
                            MM3buck B        11.500000    None      
                            MM3buck C        2.5500000    None      
                            MM3buck epsilon 0.31250271E-02eV        
                            MM3buck rv       3.9595000    Ang       
--------------------------------------------------------------------------------
O171 c Zn172c MM3buck       MM3buck A        184000.00    None      3Bond 12.000
                            MM3buck B        11.500000    None      
                            MM3buck C        2.5500000    None      
                            MM3buck epsilon 0.55956611E-02eV        
                            MM3buck rv       3.7332600    Ang       
--------------------------------------------------------------------------------
O3   c Ti   c MM3buck       MM3buck A        184000.00    None      3Bond 12.000
                            MM3buck B        11.500000    None      
                            MM3buck C        2.5500000    None      
                            MM3buck epsilon 0.44016176E-02eV        
                            MM3buck rv       3.0441150    Ang       
--------------------------------------------------------------------------------
O2   c Ti   c MM3buck       MM3buck A        184000.00    None      3Bond 12.000
                            MM3buck B        11.500000    None      
                            MM3buck C        2.5500000    None      
                            MM3buck epsilon 0.12586926E-01eV        
                            MM3buck rv       3.0441150    Ang       
--------------------------------------------------------------------------------
O3   c O3   c MM3buck       MM3buck A        184000.00    None      3Bond 12.000
                            MM3buck B        11.500000    None      
                            MM3buck C        2.5500000    None      
                            MM3buck epsilon 0.10031500E-02eV        
                            MM3buck rv       3.1875200    Ang       
--------------------------------------------------------------------------------
O2   c O2   c MM3buck       MM3buck A        184000.00    None      3Bond 12.000
                            MM3buck B        11.500000    None      
                            MM3buck C        2.5500000    None      
                            MM3buck epsilon 0.82031500E-02eV        
                            MM3buck rv       3.1875200    Ang       
--------------------------------------------------------------------------------
O2   c O172 c MM3buck       MM3buck A        184000.00    None      3Bond  0.000
                            MM3buck B        11.500000    None      
                            MM3buck C        2.5500000    None      
                            MM3buck epsilon 0.45812399E-02eV        
                            MM3buck rv       3.4137600    Ang       
--------------------------------------------------------------------------------
O2   c O173 c MM3buck       MM3buck A        184000.00    None      3Bond  0.000
                            MM3buck B        11.500000    None      
                            MM3buck C        2.5500000    None      
                            MM3buck epsilon 0.45812399E-02eV        
                            MM3buck rv       3.4137600    Ang       
--------------------------------------------------------------------------------
O2   c O170 c MM3buck       MM3buck A        184000.00    None      3Bond 12.000
                            MM3buck B        11.500000    None      
                            MM3buck C        2.5500000    None      
                            MM3buck epsilon 0.45812399E-02eV        
                            MM3buck rv       3.4137600    Ang       
--------------------------------------------------------------------------------
O3   c O172 c MM3buck       MM3buck A        184000.00    None      3Bond  0.000
                            MM3buck B        11.500000    None      
                            MM3buck C        2.5500000    None      
                            MM3buck epsilon 0.16020485E-02eV        
                            MM3buck rv       3.4137600    Ang       
--------------------------------------------------------------------------------
O3   c O173 c MM3buck       MM3buck A        184000.00    None      3Bond  0.000
                            MM3buck B        11.500000    None      
                            MM3buck C        2.5500000    None      
                            MM3buck epsilon 0.16020485E-02eV        
                            MM3buck rv       3.4137600    Ang       
--------------------------------------------------------------------------------
O3   c O170 c MM3buck       MM3buck A        184000.00    None      3Bond 12.000
                            MM3buck B        11.500000    None      
                            MM3buck C        2.5500000    None      
                            MM3buck epsilon 0.16020485E-02eV        
                            MM3buck rv       3.4137600    Ang       
--------------------------------------------------------------------------------
O3   c O175 c MM3buck       MM3buck A        184000.00    None      3Bond 12.000
                            MM3buck B        11.500000    None      
                            MM3buck C        2.5500000    None      
                            MM3buck epsilon 0.16020485E-02eV        
                            MM3buck rv       3.4137600    Ang       
--------------------------------------------------------------------------------
O2   c O175 c MM3buck       MM3buck A        184000.00    None      3Bond 12.000
                            MM3buck B        11.500000    None      
                            MM3buck C        2.5500000    None      
                            MM3buck epsilon 0.45812399E-02eV        
                            MM3buck rv       3.4137600    Ang       
--------------------------------------------------------------------------------
O3   c O176 c MM3buck       MM3buck A        184000.00    None      3Bond 12.000
                            MM3buck B        11.500000    None      
                            MM3buck C        2.5500000    None      
                            MM3buck epsilon 0.16020485E-02eV        
                            MM3buck rv       3.4137600    Ang       
--------------------------------------------------------------------------------
O2   c O176 c MM3buck       MM3buck A        184000.00    None      3Bond 12.000
                            MM3buck B        11.500000    None      
                            MM3buck C        2.5500000    None      
                            MM3buck epsilon 0.45812399E-02eV        
                            MM3buck rv       3.4137600    Ang       
--------------------------------------------------------------------------------
O3   c O177 c MM3buck       MM3buck A        184000.00    None      3Bond 12.000
                            MM3buck B        11.500000    None      
                            MM3buck C        2.5500000    None      
                            MM3buck epsilon 0.16020485E-02eV        
                            MM3buck rv       3.4137600    Ang       
--------------------------------------------------------------------------------
O2   c O177 c MM3buck       MM3buck A        184000.00    None      3Bond 12.000
                            MM3buck B        11.500000    None      
                            MM3buck C        2.5500000    None      
                            MM3buck epsilon 0.45812399E-02eV        
                            MM3buck rv       3.4137600    Ang       
--------------------------------------------------------------------------------
O172 c Ti   c MM3buck       MM3buck A        184000.00    None      3Bond 12.000
                            MM3buck B        11.500000    None      
                            MM3buck C        2.5500000    None      
                            MM3buck epsilon 0.70294618E-02eV        
                            MM3buck rv       3.2703550    Ang       
--------------------------------------------------------------------------------
O170 c Ti   c MM3buck       MM3buck A        184000.00    None      3Bond 12.000
                            MM3buck B        11.500000    None      
                            MM3buck C        2.5500000    None      
                            MM3buck epsilon 0.70294618E-02eV        
                            MM3buck rv       3.2703550    Ang       
--------------------------------------------------------------------------------
O173 c Ti   c MM3buck       MM3buck A        184000.00    None      3Bond 12.000
                            MM3buck B        11.500000    None      
                            MM3buck C        2.5500000    None      
                            MM3buck epsilon 0.70294618E-02eV        
                            MM3buck rv       3.2703550    Ang       
--------------------------------------------------------------------------------
O175 c Ti   c MM3buck       MM3buck A        184000.00    None      3Bond 12.000
                            MM3buck B        11.500000    None      
                            MM3buck C        2.5500000    None      
                            MM3buck epsilon 0.70294618E-02eV        
                            MM3buck rv       3.2703550    Ang       
--------------------------------------------------------------------------------
O176 c Ti   c MM3buck       MM3buck A        184000.00    None      3Bond 12.000
                            MM3buck B        11.500000    None      
                            MM3buck C        2.5500000    None      
                            MM3buck epsilon 0.70294618E-02eV        
                            MM3buck rv       3.2703550    Ang       
--------------------------------------------------------------------------------
O177 c Ti   c MM3buck       MM3buck A        184000.00    None      3Bond 12.000
                            MM3buck B        11.500000    None      
                            MM3buck C        2.5500000    None      
                            MM3buck epsilon 0.70294618E-02eV        
                            MM3buck rv       3.2703550    Ang       
--------------------------------------------------------------------------------
Ti   c Ti   c MM3buck       MM3buck A        184000.00    None      3Bond 12.000
                            MM3buck B        11.500000    None      
                            MM3buck C        2.5500000    None      
                            MM3buck epsilon 0.19313400E-01eV        
                            MM3buck rv       2.9007100    Ang       
--------------------------------------------------------------------------------
Ti3  c Ti3  c MM3buck       MM3buck A        184000.00    None      3Bond 12.000
                            MM3buck B        11.500000    None      
                            MM3buck C        2.5500000    None      
                            MM3buck epsilon 0.19313400E-01eV        
                            MM3buck rv       2.9007100    Ang       
--------------------------------------------------------------------------------
C916 c O3   c Lenn/es       Lennard epsilon  0.0000000    eV        3Bond 12.500
                            Lennard sigma/m  0.0000000    Ang       
                            Exponent m        12          None
                            Exponent n         6          None
--------------------------------------------------------------------------------
C917 c O3   c Lenn/es       Lennard epsilon  0.0000000    eV        3Bond 12.500
                            Lennard sigma/m  0.0000000    Ang       
                            Exponent m        12          None
                            Exponent n         6          None
--------------------------------------------------------------------------------
O3   c O175 c Lenn/es       Lennard epsilon  0.0000000    eV        3Bond 12.500
                            Lennard sigma/m  0.0000000    Ang       
                            Exponent m        12          None
                            Exponent n         6          None
--------------------------------------------------------------------------------
C915 c O3   c Lenn/es       Lennard epsilon  0.0000000    eV        3Bond 12.500
                            Lennard sigma/m  0.0000000    Ang       
                            Exponent m        12          None
                            Exponent n         6          None
--------------------------------------------------------------------------------
C902 c O3   c Lenn/es       Lennard epsilon  0.0000000    eV        3Bond 12.500
                            Lennard sigma/m  0.0000000    Ang       
                            Exponent m        12          None
                            Exponent n         6          None
--------------------------------------------------------------------------------
C914 c O3   c Lenn/es       Lennard epsilon  0.0000000    eV        3Bond 12.500
                            Lennard sigma/m  0.0000000    Ang       
                            Exponent m        12          None
                            Exponent n         6          None
--------------------------------------------------------------------------------
C913 c O3   c Lenn/es       Lennard epsilon  0.0000000    eV        3Bond 12.500
                            Lennard sigma/m  0.0000000    Ang       
                            Exponent m        12          None
                            Exponent n         6          None
--------------------------------------------------------------------------------
C912 c O3   c Lenn/es       Lennard epsilon  0.0000000    eV        3Bond 12.500
                            Lennard sigma/m  0.0000000    Ang       
                            Exponent m        12          None
                            Exponent n         6          None
--------------------------------------------------------------------------------
H915 c O3   c Lenn/es       Lennard epsilon  0.0000000    eV        3Bond 12.500
                            Lennard sigma/m  0.0000000    Ang       
                            Exponent m        12          None
                            Exponent n         6          None
--------------------------------------------------------------------------------
H21  c O3   c Lenn/es       Lennard epsilon  0.0000000    eV        3Bond 12.500
                            Lennard sigma/m  0.0000000    Ang       
                            Exponent m        12          None
                            Exponent n         6          None
--------------------------------------------------------------------------------
C916 c O2   c Lenn/es       Lennard epsilon  0.0000000    eV        3Bond 12.500
                            Lennard sigma/m  0.0000000    Ang       
                            Exponent m        12          None
                            Exponent n         6          None
--------------------------------------------------------------------------------
C917 c O2   c Lenn/es       Lennard epsilon  0.0000000    eV        3Bond 12.500
[...]
   428 O2    c     19.408384           0.001771   -1.399399   -0.044870
   429 O2    c     19.430052           0.004751    1.444367   -0.047562
   430 O2    c     19.404985           0.009485   -1.399371   -0.035907
   431 O2    c     19.384036           0.007446    1.427860   -0.030627
   432 O2    c     19.406972           0.015510   -1.468186   -0.064794
   433 O2    c     19.386207           0.006103    1.424206   -0.030881
   434 O2    c     19.402991           0.018582   -1.454303   -0.043020
   435 O2    c     19.394379          -0.000542    1.420327   -0.038538
   436 O2    c     19.405367           0.009946   -1.444016   -0.030556
   437 O2    c     19.402897          -0.007632    1.417901   -0.042655
   438 O2    c     19.412374          -0.009723   -1.439324   -0.028830
   439 O2    c     19.409476          -0.007206    1.411117   -0.041551
   440 O2    c     19.423903          -0.020718   -1.438016   -0.040066
   441 O2    c     19.400543           0.000967    1.416159   -0.035125
   442 O2    c     19.422310          -0.014063   -1.455652   -0.059911
   443 O2    c     19.429548           0.018383    1.391919   -0.049253
   444 O2    c     19.432997           0.010283   -1.399996   -0.039568
   445 O2    c     19.415583           0.007633    1.398098   -0.032872
   446 O2    c     19.422092           0.001346   -1.412013   -0.037584
   447 O2    c     19.411440          -0.003564    1.410515   -0.031927
   448 O2    c     19.419409          -0.007146   -1.421093   -0.040890
   449 O2    c     19.411682          -0.012101    1.420379   -0.034522
   450 O2    c     19.418693          -0.011066   -1.429786   -0.049812
   451 O2    c     19.423343          -0.009553    1.412548   -0.042809
   452 O2    c     19.428185          -0.001756   -1.421119   -0.049551
   453 O2    c     20.572914          -0.097989    0.000347    0.377841
   454 O2    c     20.555554           0.011535   -0.007514    0.364846
   455 O2    c     20.550120           0.003816   -0.007936    0.363906
   456 O2    c     20.548655          -0.008813   -0.002664    0.361357
   457 O2    c     20.553499          -0.003112    0.001206    0.365413
   458 O2    c     20.560603          -0.002205   -0.001890    0.372330
   459 O2    c     20.561450          -0.002086   -0.005416    0.369353
   460 O2    c     20.519465           0.092900    0.016969    0.356066
   461 O2    c     20.507688          -0.067317    0.014085    0.345952
   462 O2    c     20.503966          -0.101515   -0.000622    0.330484
   463 O2    c     20.521186          -0.039971   -0.009915    0.342908
   464 O2    c     20.530208           0.017280   -0.006166    0.350396
   465 O2    c     20.523165           0.099093    0.006145    0.345151
   466 O2    c     20.577598          -0.018145   -0.007340    0.379481
   467 O2    c     20.573805           0.033346   -0.003285    0.379667
   468 O2    c     20.557237           0.043730    0.005619    0.363443
   469 O2    c     20.551370           0.063774    0.009591    0.361362
   470 O2    c     20.565965          -0.024573    0.008862    0.380929
   471 O2    c     18.812858           0.035720    0.008444    0.041841
   472 O2    c     18.784487          -0.009403    0.001891   -0.012667
   473 O2    c     18.771892           0.002398    0.000946   -0.025585
   474 O2    c     18.775506           0.013217   -0.001227   -0.019068
   475 O2    c     18.796192           0.014672   -0.003862    0.010601
   476 O2    c     18.812798          -0.002928   -0.005131    0.032339
   477 O2    c     18.801756          -0.016908   -0.001141    0.013498
   478 O2    c     18.763396          -0.003787   -0.005674   -0.018313
   479 O2    c     18.757617           0.007669   -0.005533   -0.022872
   480 O2    c     18.757056           0.014857   -0.007877   -0.024564
   481 O2    c     18.764466           0.006746   -0.008186   -0.016189
   482 O2    c     18.770227          -0.010279   -0.008553   -0.011203
   483 O2    c     18.769087          -0.015412   -0.008155   -0.014524
   484 O2    c     18.839391           0.011214    0.001990    0.081204
   485 O2    c     18.816284          -0.030911    0.002528    0.053830
   486 O2    c     18.777060          -0.037703    0.007061   -0.006891
   487 O2    c     18.756995          -0.006238    0.011150   -0.034903
   488 O2    c     18.778236           0.026928    0.012772   -0.007989
   489 O2    c     19.862433          -0.002575    3.381675    0.719531
   490 O2    c     19.849324           0.004300    3.394308    0.717939
   491 O2    c     19.846242           0.000873    3.389697    0.721934
   492 O2    c     19.849607          -0.002039    3.381074    0.726336
   493 O2    c     19.854313          -0.002984    3.377119    0.727171
   494 O2    c     19.856318          -0.002224    3.380511    0.725147
   495 O2    c     19.854780           0.001671    3.388711    0.719620
   496 O2    c     19.848366           0.005489    3.332508    0.785089
   497 O2    c     19.841872          -0.004528    3.339750    0.762850
   498 O2    c     19.838582          -0.008456    3.351880    0.733918
   499 O2    c     19.841844          -0.004605    3.357185    0.723198
   500 O2    c     19.847297           0.003186    3.347440    0.734151
   501 O2    c     19.850380           0.008900    3.334490    0.764930
   502 O2    c     19.857506           0.004099    3.384990    0.713823
   503 O2    c     19.853146           0.005560    3.382716    0.725476
   504 O2    c     19.851996           0.003596    3.376062    0.740701
   505 O2    c     19.856304          -0.002817    3.374661    0.756089
   506 O2    c     19.862310          -0.007069    3.377998    0.747416
   507 O2    c     19.861761          -0.004165   -3.376230    0.729427
   508 O2    c     19.850889           0.003906   -3.362497    0.750452
   509 O2    c     19.848582          -0.000101   -3.366521    0.747032
   510 O2    c     19.849308          -0.002311   -3.370016    0.741185
   511 O2    c     19.853185          -0.003373   -3.371332    0.739533
   512 O2    c     19.857229          -0.001726   -3.368710    0.743755
   513 O2    c     19.855727           0.003817   -3.363309    0.748189
   514 O2    c     19.846429           0.005841   -3.370725    0.737294
   515 O2    c     19.840506          -0.004505   -3.363321    0.732040
   516 O2    c     19.839480          -0.007801   -3.353956    0.728730
   517 O2    c     19.842437          -0.003456   -3.351085    0.727311
   518 O2    c     19.847315           0.002076   -3.355951    0.721018
   519 O2    c     19.850142           0.008028   -3.365847    0.725203
   520 O2    c     19.857368           0.003577   -3.378593    0.727810
   521 O2    c     19.851946           0.007098   -3.382822    0.728415
   522 O2    c     19.851486           0.003996   -3.385734    0.729033
   523 O2    c     19.857015          -0.003029   -3.386709    0.739553
   524 O2    c     19.861791          -0.008275   -3.381827    0.741246
   525 O2    c     17.249741          -0.041074   -0.017156    7.818234
   526 O2    c     17.246931           0.016292   -0.018585    7.818201
   527 O2    c     17.241186           0.004343   -0.010460    7.820048
   528 O2    c     17.239298          -0.013108   -0.001469    7.821071
   529 O2    c     17.242755          -0.020179    0.011536    7.821518
   530 O2    c     17.247679          -0.003513    0.018022    7.820627
   531 O2    c     17.250734           0.015937   -0.002544    7.818815
   532 O2    c     17.219815           0.011457    0.005758    7.821496
   533 O2    c     17.214950          -0.002866    0.005035    7.823062
   534 O2    c     17.217212          -0.016441    0.016866    7.814913
   535 O2    c     17.222972          -0.012400    0.014958    7.806952
   536 O2    c     17.227250           0.004146    0.018078    7.806450
   537 O2    c     17.226245           0.016142    0.021410    7.812800
   538 O2    c     17.251700          -0.004599    0.013434    7.815088
   539 O2    c     17.244201           0.040283    0.007202    7.818878
   540 O2    c     17.233627           0.040260   -0.013004    7.823388
   541 O2    c     17.231585           0.001815   -0.026030    7.826806
   542 O2    c     17.237765          -0.036456   -0.036831    7.824176
   543 O176  c     16.969483           0.448132   -4.275327   -3.163921
   544 O170  c     14.696565           4.664646   -0.306681    0.788956
   545 O176  c     18.882878           0.313410    3.040137   -1.064876
   546 O170  c     14.726112          -4.759855    0.154525    0.524405
   547 O176  c     16.332218          -4.522265    0.829180   -2.641282
   548 O170  c     14.895462           0.082258   -4.508244    0.313690
   549 O176  c     16.299062           4.385240    0.274071   -2.758326
   550 O170  c     14.668701          -0.296522    5.013781    0.818582
   551 O171  c     25.492083           0.048780    0.008763    0.111169
   552 O171  c     25.539604           0.026025    0.152629   -0.094729
   553 O170  c     14.528842           2.338823    2.772560   -3.309647
   554 O170  c     14.463738           2.827784    2.284993    3.310451
   555 O170  c     14.492922          -3.133690   -2.443139    2.881312
   556 O170  c     14.547603          -2.017764   -2.644664   -3.485883
   557 O170  c     14.508470          -2.958896    2.283352    3.163264
   558 O170  c     14.440306           2.864616   -2.353686    3.256371
   559 O170  c     14.530392           2.189417   -2.699602   -3.417141
   560 O170  c     14.563819          -2.042559    2.660095   -3.459666
   561 O170  c     14.742779          -0.045895   -4.782030   -0.569129
   562 O173  c      8.936766           7.421181    0.132941   -3.993488
   563 O170  c     14.753820           0.046908    4.733249   -0.615472
   564 O172  c     10.945445          -7.182179   -0.023741   -0.802794
   565 H21   c     -6.495094          -1.838892   -0.183237    7.643993
   566 O170  c     14.748025          -4.786985   -0.047300   -0.547534
   567 O172  c     10.931269          -0.027301   -7.177519   -0.836480
   568 H21   c     -6.507444          -0.208845   -1.876246    7.636348
   569 O170  c     14.768819           4.700496    0.035515   -0.644389
   570 O173  c      8.921279           0.151588    7.440963   -3.955561
   571 O170  c     14.538355           3.042155   -2.325705   -3.089542
   572 O170  c     14.597804           1.949551   -2.570958    3.700023
   573 O170  c     14.562327          -2.263206    2.746359    3.239710
   574 O170  c     14.502454          -2.834790    2.276991   -3.253508
   575 O170  c     14.575110           1.981412    2.496034    3.626526
   576 O170  c     14.592753          -2.353576   -2.951517    3.075085
   577 O170  c     14.528193          -2.925142   -2.210866   -3.214135
   578 O170  c     14.502878           3.012348    2.483140   -3.033686
   579 C912  c      1.406627          -0.202689    0.705843   -1.208078
   580 C912  c      0.854356          -0.723350    0.029169    1.026576
   581 C912  c      1.625202          -0.259165   -0.605695   -1.528080
   582 C912  c      0.921117           0.687530   -0.031756    1.026438
   583 C912  c      1.063241           0.813671   -0.292525   -1.168090
   584 C912  c      1.143775           0.099364    0.523038    0.964450
   585 C912  c      0.899618          -0.619391   -0.198642   -1.147095
   586 C912  c      1.262856           0.106900   -0.843638    0.807439
   587 C916  c    -15.220000           0.826819   -2.273823    5.437799
   588 C913  c    -17.665241           0.197274   -0.466916   -6.910556
   589 C916  c    -16.684590           0.123683    0.588690    6.179871
   590 C913  c    -17.520638          -1.028859    0.393056   -6.900621
   591 C902  c      2.042453          -0.611368    0.408793   -4.189966
   592 C902  c      1.066488          -0.129209    0.189445    3.683254
   593 C902  c      1.289628           0.221560   -0.560840   -3.896939
   594 C902  c      1.308476           0.489844   -0.380739    3.513159
   595 C912  c      0.911947          -1.089414    0.397033    0.521659
   596 C912  c      0.894934           0.285539   -1.179448   -0.473780
   597 C912  c      0.926997          -0.272486    1.181085   -0.458322
   598 C912  c      0.883036           1.049452   -0.425128    0.580022
   599 C912  c      0.902037          -0.280810   -1.178801   -0.457659
   600 C912  c      0.913684           0.285304    1.179486   -0.484945
   601 C912  c      0.894784          -1.075982   -0.409646    0.553390
   602 C912  c      0.891704           1.050082    0.422909    0.563350
   603 C912  c      1.103405           0.023192    0.677132   -0.926929
   604 C912  c      1.277999          -0.510700   -0.034606    1.287976
   605 C912  c      1.052048           0.015272   -0.650078   -0.956098
   606 C912  c      1.411100           0.628882   -0.030161    1.371173
   607 C912  c      1.120440           0.672502    0.018910   -0.928537
   608 C912  c      1.393316          -0.033610    0.622050    1.374768
   609 C912  c      1.069998          -0.655441    0.012080   -0.951369
   610 C912  c      1.259565          -0.038783   -0.516952    1.285772
   611 C912  c      0.913469           0.285613    1.187248    0.460149
   612 C912  c      0.898202          -1.058373   -0.435995   -0.564381
   613 C912  c      0.898370           1.080002    0.421202   -0.553091
   614 C912  c      0.925542          -0.289792   -1.190688    0.485204
   615 C912  c      0.889238          -1.070861    0.435478   -0.568734
   616 C912  c      0.914817           1.073047   -0.413024   -0.540681
   617 C912  c      0.907258          -0.297082    1.177607    0.488179
   618 C912  c      0.939425           0.267752   -1.209225    0.439346
   619 C913  c    -17.670417           4.666201   -5.367418   -0.342594
   620 C913  c    -17.679254          -4.672912    5.346256   -0.511292
   621 C913  c    -17.672413           4.670654    5.346899   -0.412118
   622 C913  c    -17.676813          -4.670074   -5.359480   -0.478647
   623 C913  c    -17.583678          -0.160648    0.031084    6.959745
   624 C914  c    -14.448800           0.536797    0.105638   -4.520486
   625 C913  c    -17.579557           0.065680   -0.135999    6.969799
   626 C914  c    -14.464257           0.120075    0.559396   -4.516438
   627 C913  c    -17.648317          -4.663677   -5.351113    0.415301
   628 C913  c    -17.632187           4.651385    5.360343    0.431077
   629 C913  c    -17.642669           4.612649   -5.397342    0.370039
   630 C913  c    -17.637378          -4.719253    5.297612    0.506737
   631 C902  c      1.043639          -2.316624    2.694889    0.119136
   632 C902  c      1.011758           2.286786   -2.710328    0.182610
   633 C902  c      1.024961          -2.316158   -2.698559    0.161469
   634 C902  c      1.025056           2.281684    2.714597    0.150159
   635 C902  c      1.218287           0.080405   -0.002158   -3.600265
   636 C902  c      1.974027           0.134872   -0.103260    4.375131
   637 C902  c      1.233560          -0.021395    0.066776   -3.596513
   638 C902  c      1.956508          -0.115946    0.113284    4.376443
   639 C902  c      1.039759           2.317122    2.709572   -0.163326
   640 C902  c      1.043341          -2.292721   -2.724560   -0.138670
   641 C902  c      1.029618          -2.306586    2.712164   -0.142442
   642 C902  c      1.059450           2.300144   -2.720547   -0.176368
   643 H915  c     -1.621758           0.014847    0.292135    0.170849
   644 H915  c     -2.111235          -0.508886   -0.043842   -0.249616
   645 H915  c     -1.017448          -0.105309   -0.360624   -0.485773
   646 H915  c     -2.050390           0.567738   -0.095704   -0.294138
   647 H915  c     -1.716021           0.562051   -0.209915   -0.005929
   648 H915  c     -1.961532          -0.089249    0.540991   -0.352854
   649 H915  c     -2.011866          -0.570561   -0.088406    0.085189
   650 H915  c     -1.727053          -0.057716   -0.472592   -0.351811
   651 H915  c     -2.021763          -0.141989   -0.456357    0.332182
   652 H915  c     -2.009550          -0.378050   -0.120075   -0.360948
   653 H915  c     -1.987056           0.420216    0.103997   -0.365341
   654 H915  c     -2.051178           0.112855    0.460201    0.371609
   655 H915  c     -2.011061           0.406696   -0.113555   -0.359703
   656 H915  c     -1.987704          -0.377000    0.114293   -0.369077
   657 H915  c     -2.033895          -0.132413    0.451852    0.351307
   658 H915  c     -2.050517           0.113626   -0.465105    0.363158
   659 H915  c     -1.934255          -0.007877    0.506245    0.331444
   660 H915  c     -1.803297          -0.249405   -0.001570   -0.162927
   661 H915  c     -1.986532          -0.013248   -0.487646    0.295278
   662 H915  c     -1.527672           0.269550   -0.003803    0.035857
   663 H915  c     -1.918203           0.508808   -0.007266    0.331891
   664 H915  c     -1.544978          -0.003353    0.269504    0.038115
   665 H915  c     -1.969103          -0.486707   -0.011826    0.300085
   666 H915  c     -1.821535          -0.001039   -0.248084   -0.162954
   667 H915  c     -1.992653          -0.402697    0.116394    0.366158
   668 H915  c     -2.034573          -0.126356    0.441209   -0.363162
   669 H915  c     -2.028419           0.135875   -0.436673   -0.347967
   670 H915  c     -1.966595           0.379375   -0.124601    0.371974
   671 H915  c     -2.031371          -0.141879   -0.414628   -0.352410
   672 H915  c     -2.026749           0.118866    0.476529   -0.355094
   673 H915  c     -1.994445           0.395502    0.106503    0.386181
   674 H915  c     -1.955926          -0.389847   -0.141712    0.342124
   675 Zn172 c    -20.999887           0.023241   -0.330622    0.090373
   676 Zn172 c    -20.844968          -0.486533    0.015774    0.147190
   677 Zn172 c    -20.921021           0.462960    0.041387    0.188032
   678 Zn172 c    -20.993015           0.013890    0.355906    0.100056
   679 Zn172 c    -20.835100           0.492248    0.031322   -0.109515
   680 Zn172 c    -21.012798           0.106743    0.432099   -0.072504
   681 Zn172 c    -20.824454          -0.437284    0.035632   -0.148769
   682 Zn172 c    -20.863545           0.082729   -0.212966   -0.199024
-------------------------------------------------------------------------------

  Total time to end of lattice properties =     522.1839 s


  Peak dynamic memory used =      87.25 MB 


  Timing analysis for GULP :

--------------------------------------------------------------------------------
  Task / Subroutine                                          Time (Seconds)
--------------------------------------------------------------------------------
  Calculation of reciprocal space energy and derivatives        126.3636
  Calculation of real space energy and derivatives              338.3415
  Calculation of three-body energy and derivatives                0.6467
  Calculation of four-body energy and derivatives                 0.6832
  Calculation of molecules and connectivity                       0.1851
  Calculation of phonons                                         26.2810
  Calculation of scattering                                       0.0000
  Calculation of matrix inversion                                33.7393
  Symmetry generation of equivalent positions                     0.0075
  Global summation overhead                                       0.0014
--------------------------------------------------------------------------------
  Total CPU time                                                522.1840
--------------------------------------------------------------------------------


  Dump file written as fit1.res                                                


  Job Finished at 17:04.19 17th May        2016                               

