********************************************************************************
*                       GENERAL UTILITY LATTICE PROGRAM                        *
*                                 Julian Gale                                  *
*                      Nanochemistry Research Institute                        *
*                           Department of Chemistry                            *
*                    Curtin University, Western Australia                      *
********************************************************************************
* Version = 4.4.0 * Last modified = 31st March 2015                            *
********************************************************************************
*  optimise     - perform optimisation run                                     *
*  conv         - constant volume calculation                                  *
*  property     - calculate properties for final geometry                      *
*  phonon       - calculate phonons for final geometry                         *
*  potential    - calculate electrostatic site potentials                      *
*  molmec       - molecule option activated, Coulomb subtract 1-2/1-3 terms    *
*  fix_molecule - fix atoms of molecule as at the start of the run             *
*  compare      - compare initial and final structures                         *
********************************************************************************

  Job Started  at 23:51.37 25th May        2016                               

  Number of CPUs =     1


  Total number of configurations input =   1

********************************************************************************
*  Input for Configuration =   1                                               *
********************************************************************************

  Formula = Ti180O446H84C160Zn24                                        

  Number of irreducible atoms/shells =     894


  Total number atoms/shells =     894

  Dimensionality = 3               :  Bulk   



  Cartesian lattice vectors (Angstroms) :

       17.724000    0.000000    0.000000
        0.000000   19.461000    0.000000
        0.000000    0.000000  114.868482

  Cell parameters (Angstroms/Degrees):

  a =      17.7240    alpha =  90.0000
  b =      19.4610    beta  =  90.0000
  c =     114.8685    gamma =  90.0000

  Initial cell volume =       39621.213782 Angs**3

  Temperature of configuration =  0.000     K 

  Pressure of configuration =         0.000 GPa 

  Fractional coordinates of asymmetric unit :

--------------------------------------------------------------------------------
   No.  Atomic       x           y          z         Charge      Occupancy
        Label      (Frac)      (Frac)     (Frac)        (e)         (Frac)  
--------------------------------------------------------------------------------
      1 Ti    c    0.320000    0.733333    0.339268     2.43600    1.000000    
      2 Ti    c    0.146592 *  0.398873 *  0.341624 *   2.43600    1.000000    
      3 Ti    c    0.980605 *  0.399359 *  0.341691 *   2.43600    1.000000    
      4 Ti    c    0.817385 *  0.400430 *  0.339049 *   2.43600    1.000000    
      5 Ti    c    0.649986 *  0.398810 *  0.340406 *   2.43600    1.000000    
      6 Ti    c    0.487414 *  0.399448 *  0.339550 *   2.43600    1.000000    
      7 Ti    c    0.310630 *  0.398235 *  0.339270 *   2.43600    1.000000    
      8 Ti    c    0.148148 *  0.065596 *  0.340983 *   2.43600    1.000000    
      9 Ti    c    0.981618 *  0.065577 *  0.341470 *   2.43600    1.000000    
     10 Ti    c    0.815950 *  0.065217 *  0.340540 *   2.43600    1.000000    
     11 Ti    c    0.649621 *  0.065504 *  0.341423 *   2.43600    1.000000    
     12 Ti    c    0.482853 *  0.065838 *  0.341398 *   2.43600    1.000000    
     13 Ti    c    0.315292 *  0.065577 *  0.341340 *   2.43600    1.000000    
     14 Ti    c    0.143881 *  0.732951 *  0.338618 *   2.43600    1.000000    
     15 Ti    c    0.981447 *  0.732796 *  0.341526 *   2.43600    1.000000    
     16 Ti    c    0.815822 *  0.731607 *  0.341533 *   2.43600    1.000000    
     17 Ti    c    0.649462 *  0.731566 *  0.341455 *   2.43600    1.000000    
     18 Ti    c    0.483399 *  0.732414 *  0.341441 *   2.43600    1.000000    
     19 Ti    c    0.061872 *  0.232026 *  0.339448 *   2.43600    1.000000    
     20 Ti    c    0.892494 *  0.232463 *  0.341185 *   2.43600    1.000000    
     21 Ti    c    0.738426 *  0.230092 *  0.340804 *   2.43600    1.000000    
     22 Ti    c    0.900065 *  0.899313 *  0.339256 *   2.43600    1.000000    
     23 Ti    c    0.565256 *  0.898714 *  0.339274 *   2.43600    1.000000    
     24 Ti    c    0.398160 *  0.899229 *  0.339125 *   2.43600    1.000000    
     25 Ti    c    0.898872 *  0.565970 *  0.338941 *   2.43600    1.000000    
     26 Ti    c    0.565678 *  0.566195 *  0.338966 *   2.43600    1.000000    
     27 Ti    c    0.398751 *  0.568463 *  0.338760 *   2.43600    1.000000    
     28 Ti    c    0.230862 *  0.231354 *  0.339312 *   2.43600    1.000000    
     29 Ti    c    0.569140 *  0.233284 *  0.339357 *   2.43600    1.000000    
     30 Ti    c    0.399995 *  0.230168 *  0.339095 *   2.43600    1.000000    
     31 Ti    c    0.231786 *  0.900455 *  0.340435 *   2.43600    1.000000    
     32 Ti    c    0.066833 *  0.899470 *  0.340994 *   2.43600    1.000000    
     33 Ti    c    0.732480 *  0.898560 *  0.339232 *   2.43600    1.000000    
     34 Ti    c    0.232278 *  0.563306 *  0.338698 *   2.43600    1.000000    
     35 Ti    c    0.065395 *  0.566939 *  0.339099 *   2.43600    1.000000    
     36 Ti    c    0.732315 *  0.564545 *  0.340537 *   2.43600    1.000000    
     37 Ti    c    0.315548 *  0.565649 *  0.311576 *   2.43600    1.000000    
     38 Ti    c    0.148471 *  0.232474 *  0.312187 *   2.43600    1.000000    
     39 Ti    c    0.981751 *  0.232378 *  0.312597 *   2.43600    1.000000    
     40 Ti    c    0.815663 *  0.232121 *  0.314115 *   2.43600    1.000000    
     41 Ti    c    0.649303 *  0.232073 *  0.312396 *   2.43600    1.000000    
     42 Ti    c    0.482476 *  0.232299 *  0.312033 *   2.43600    1.000000    
     43 Ti    c    0.315427 *  0.232423 *  0.312055 *   2.43600    1.000000    
     44 Ti    c    0.148796 *  0.899275 *  0.313476 *   2.43600    1.000000    
     45 Ti    c    0.982580 *  0.899034 *  0.312596 *   2.43600    1.000000    
     46 Ti    c    0.815597 *  0.898801 *  0.312135 *   2.43600    1.000000    
     47 Ti    c    0.648969 *  0.898712 *  0.312073 *   2.43600    1.000000    
     48 Ti    c    0.482517 *  0.899042 *  0.311965 *   2.43600    1.000000    
     49 Ti    c    0.315522 *  0.899297 *  0.312409 *   2.43600    1.000000    
     50 Ti    c    0.148616 *  0.565790 *  0.311727 *   2.43600    1.000000    
     51 Ti    c    0.982243 *  0.565889 *  0.311731 *   2.43600    1.000000    
     52 Ti    c    0.815142 *  0.565285 *  0.312596 *   2.43600    1.000000    
     53 Ti    c    0.649227 *  0.565456 *  0.312396 *   2.43600    1.000000    
     54 Ti    c    0.482321 *  0.565803 *  0.311617 *   2.43600    1.000000    
     55 Ti    c    0.400523 *  0.732395 *  0.312164 *   2.43600    1.000000    
     56 Ti    c    0.230491 *  0.399058 *  0.312201 *   2.43600    1.000000    
     57 Ti    c    0.065194 *  0.399002 *  0.312898 *   2.43600    1.000000    
     58 Ti    c    0.900091 *  0.398617 *  0.312410 *   2.43600    1.000000    
     59 Ti    c    0.732472 *  0.398643 *  0.312407 *   2.43600    1.000000    
     60 Ti    c    0.566536 *  0.398640 *  0.312043 *   2.43600    1.000000    
     61 Ti    c    0.398851 *  0.398916 *  0.312272 *   2.43600    1.000000    
     62 Ti    c    0.232338 *  0.065817 *  0.312856 *   2.43600    1.000000    
     63 Ti    c    0.065395 *  0.065842 *  0.312901 *   2.43600    1.000000    
     64 Ti    c    0.899102 *  0.065537 *  0.312819 *   2.43600    1.000000    
     65 Ti    c    0.732021 *  0.065559 *  0.312787 *   2.43600    1.000000    
     66 Ti    c    0.565619 *  0.065285 *  0.312874 *   2.43600    1.000000    
     67 Ti    c    0.399017 *  0.065935 *  0.312857 *   2.43600    1.000000    
     68 Ti    c    0.232483 *  0.732545 *  0.312248 *   2.43600    1.000000    
     69 Ti    c    0.063729 *  0.732634 *  0.312101 *   2.43600    1.000000    
     70 Ti    c    0.898366 *  0.732071 *  0.312885 *   2.43600    1.000000    
     71 Ti    c    0.732194 *  0.731966 *  0.312934 *   2.43600    1.000000    
     72 Ti    c    0.566013 *  0.732206 *  0.312791 *   2.43600    1.000000    
     73 Ti    c    0.315567 *  0.732377 *  0.284555 *   2.43600    1.000000    
     74 Ti    c    0.148674 *  0.398973 *  0.284774 *   2.43600    1.000000    
     75 Ti    c    0.982416 *  0.398962 *  0.284957 *   2.43600    1.000000    
     76 Ti    c    0.815675 *  0.398868 *  0.284776 *   2.43600    1.000000    
     77 Ti    c    0.649131 *  0.398908 *  0.284672 *   2.43600    1.000000    
     78 Ti    c    0.482142 *  0.398931 *  0.284492 *   2.43600    1.000000    
     79 Ti    c    0.315521 *  0.399020 *  0.284504 *   2.43600    1.000000    
     80 Ti    c    0.148950 *  0.065676 *  0.285131 *   2.43600    1.000000    
     81 Ti    c    0.982325 *  0.065597 *  0.285216 *   2.43600    1.000000    
     82 Ti    c    0.815579 *  0.065655 *  0.285140 *   2.43600    1.000000    
     83 Ti    c    0.648848 *  0.065624 *  0.285115 *   2.43600    1.000000    
     84 Ti    c    0.482214 *  0.065641 *  0.285068 *   2.43600    1.000000    
     85 Ti    c    0.315565 *  0.065645 *  0.285103 *   2.43600    1.000000    
     86 Ti    c    0.148910 *  0.732398 *  0.284530 *   2.43600    1.000000    
     87 Ti    c    0.981829 *  0.732293 *  0.284870 *   2.43600    1.000000    
     88 Ti    c    0.815402 *  0.732274 *  0.285051 *   2.43600    1.000000    
     89 Ti    c    0.649039 *  0.732225 *  0.284995 *   2.43600    1.000000    
     90 Ti    c    0.482571 *  0.732261 *  0.284769 *   2.43600    1.000000    
     91 Ti    c    0.399045 *  0.565650 *  0.284644 *   2.43600    1.000000    
     92 Ti    c    0.232005 *  0.232372 *  0.285055 *   2.43600    1.000000    
     93 Ti    c    0.065076 *  0.232239 *  0.285271 *   2.43600    1.000000    
     94 Ti    c    0.898272 *  0.232273 *  0.285733 *   2.43600    1.000000    
     95 Ti    c    0.733042 *  0.232271 *  0.285659 *   2.43600    1.000000    
     96 Ti    c    0.566027 *  0.232338 *  0.285135 *   2.43600    1.000000    
     97 Ti    c    0.398942 *  0.232333 *  0.284998 *   2.43600    1.000000    
     98 Ti    c    0.231766 *  0.898984 *  0.285468 *   2.43600    1.000000    
     99 Ti    c    0.065975 *  0.898873 *  0.285551 *   2.43600    1.000000    
    100 Ti    c    0.899265 *  0.899011 *  0.285239 *   2.43600    1.000000    
    101 Ti    c    0.732367 *  0.898977 *  0.285068 *   2.43600    1.000000    
    102 Ti    c    0.565616 *  0.898884 *  0.285010 *   2.43600    1.000000    
    103 Ti    c    0.398594 *  0.898902 *  0.285092 *   2.43600    1.000000    
    104 Ti    c    0.232094 *  0.565678 *  0.284655 *   2.43600    1.000000    
    105 Ti    c    0.065355 *  0.565773 *  0.284764 *   2.43600    1.000000    
    106 Ti    c    0.898405 *  0.565504 *  0.285014 *   2.43600    1.000000    
    107 Ti    c    0.732355 *  0.565491 *  0.285174 *   2.43600    1.000000    
    108 Ti    c    0.566091 *  0.565529 *  0.284895 *   2.43600    1.000000    
    109 Ti    c    0.315598 *  0.565620 *  0.257602 *   2.43600    1.000000    
    110 Ti    c    0.148756 *  0.232304 *  0.258081 *   2.43600    1.000000    
    111 Ti    c    0.982017 *  0.232281 *  0.258330 *   2.43600    1.000000    
    112 Ti    c    0.815611 *  0.232261 *  0.258490 *   2.43600    1.000000    
    113 Ti    c    0.649154 *  0.232268 *  0.258226 *   2.43600    1.000000    
    114 Ti    c    0.482344 *  0.232287 *  0.257984 *   2.43600    1.000000    
    115 Ti    c    0.315541 *  0.232302 *  0.257945 *   2.43600    1.000000    
    116 Ti    c    0.148905 *  0.898956 *  0.258320 *   2.43600    1.000000    
    117 Ti    c    0.982447 *  0.898955 *  0.258258 *   2.43600    1.000000    
    118 Ti    c    0.815707 *  0.898969 *  0.258105 *   2.43600    1.000000    
    119 Ti    c    0.648915 *  0.898975 *  0.258003 *   2.43600    1.000000    
    120 Ti    c    0.482134 *  0.898961 *  0.257991 *   2.43600    1.000000    
    121 Ti    c    0.315380 *  0.898969 *  0.258130 *   2.43600    1.000000    
    122 Ti    c    0.148841 *  0.565633 *  0.257676 *   2.43600    1.000000    
    123 Ti    c    0.982086 *  0.565636 *  0.257835 *   2.43600    1.000000    
    124 Ti    c    0.815469 *  0.565620 *  0.257999 *   2.43600    1.000000    
    125 Ti    c    0.649017 *  0.565606 *  0.257925 *   2.43600    1.000000    
    126 Ti    c    0.482379 *  0.565619 *  0.257704 *   2.43600    1.000000    
    127 Ti    c    0.399059 *  0.732322 *  0.256942 *   2.43600    1.000000    
    128 Ti    c    0.232035 *  0.398922 *  0.256919 *   2.43600    1.000000    
    129 Ti    c    0.065414 *  0.398917 *  0.257066 *   2.43600    1.000000    
    130 Ti    c    0.898976 *  0.398926 *  0.257124 *   2.43600    1.000000    
    131 Ti    c    0.732387 *  0.398892 *  0.257039 *   2.43600    1.000000    
    132 Ti    c    0.565748 *  0.398902 *  0.256909 *   2.43600    1.000000    
    133 Ti    c    0.398901 *  0.398930 *  0.256832 *   2.43600    1.000000    
    134 Ti    c    0.232191 *  0.065646 *  0.257318 *   2.43600    1.000000    
    135 Ti    c    0.065534 *  0.065662 *  0.257375 *   2.43600    1.000000    
    136 Ti    c    0.898959 *  0.065601 *  0.257389 *   2.43600    1.000000    
    137 Ti    c    0.732295 *  0.065621 *  0.257341 *   2.43600    1.000000    
    138 Ti    c    0.565610 *  0.065640 *  0.257279 *   2.43600    1.000000    
    139 Ti    c    0.398871 *  0.065622 *  0.257270 *   2.43600    1.000000    
    140 Ti    c    0.232221 *  0.732314 *  0.256896 *   2.43600    1.000000    
    141 Ti    c    0.065343 *  0.732299 *  0.257006 *   2.43600    1.000000    
    142 Ti    c    0.898751 *  0.732327 *  0.257150 *   2.43600    1.000000    
    143 Ti    c    0.732271 *  0.732326 *  0.257187 *   2.43600    1.000000    
    144 Ti    c    0.565749 *  0.732307 *  0.257077 *   2.43600    1.000000    
    145 Ti    c    0.399022 *  0.565615 *  0.230491 *   2.43600    1.000000    
    146 Ti    c    0.315560 *  0.732460 *  0.228408 *   2.43600    1.000000    
    147 Ti    c    0.232072 *  0.232211 *  0.230828 *   2.43600    1.000000    
    148 Ti    c    0.148731 *  0.398786 *  0.228473 *   2.43600    1.000000    
    149 Ti    c    0.065312 *  0.232205 *  0.231003 *   2.43600    1.000000    
    150 Ti    c    0.982120 *  0.398782 *  0.228585 *   2.43600    1.000000    
    151 Ti    c    0.898796 *  0.232224 *  0.231179 *   2.43600    1.000000    
    152 Ti    c    0.815623 *  0.398778 *  0.228575 *   2.43600    1.000000    
    153 Ti    c    0.732460 *  0.232226 *  0.231125 *   2.43600    1.000000    
    154 Ti    c    0.649079 *  0.398779 *  0.228475 *   2.43600    1.000000    
    155 Ti    c    0.565826 *  0.232215 *  0.230901 *   2.43600    1.000000    
    156 Ti    c    0.482361 *  0.398791 *  0.228363 *   2.43600    1.000000    
    157 Ti    c    0.398959 *  0.232218 *  0.230780 *   2.43600    1.000000    
    158 Ti    c    0.315516 *  0.398798 *  0.228359 *   2.43600    1.000000    
    159 Ti    c    0.232081 *  0.899033 *  0.230998 *   2.43600    1.000000    
    160 Ti    c    0.148800 *  0.065635 *  0.228822 *   2.43600    1.000000    
    161 Ti    c    0.065602 *  0.899030 *  0.231068 *   2.43600    1.000000    
    162 Ti    c    0.982207 *  0.065647 *  0.228864 *   2.43600    1.000000    
    163 Ti    c    0.899053 *  0.899057 *  0.230991 *   2.43600    1.000000    
    164 Ti    c    0.815649 *  0.065658 *  0.228840 *   2.43600    1.000000    
    165 Ti    c    0.732362 *  0.899047 *  0.230882 *   2.43600    1.000000    
    166 Ti    c    0.649019 *  0.065665 *  0.228783 *   2.43600    1.000000    
    167 Ti    c    0.565585 *  0.899036 *  0.230823 *   2.43600    1.000000    
    168 Ti    c    0.482274 *  0.065647 *  0.228744 *   2.43600    1.000000    
    169 Ti    c    0.398774 *  0.899045 *  0.230862 *   2.43600    1.000000    
    170 Ti    c    0.315497 *  0.065625 *  0.228768 *   2.43600    1.000000    
    171 Ti    c    0.232154 *  0.565628 *  0.230483 *   2.43600    1.000000    
    172 Ti    c    0.148791 *  0.732462 *  0.228438 *   2.43600    1.000000    
    173 Ti    c    0.065377 *  0.565639 *  0.230599 *   2.43600    1.000000    
    174 Ti    c    0.982131 *  0.732450 *  0.228561 *   2.43600    1.000000    
    175 Ti    c    0.898756 *  0.565602 *  0.230748 *   2.43600    1.000000    
    176 Ti    c    0.815580 *  0.732435 *  0.228638 *   2.43600    1.000000    
    177 Ti    c    0.732315 *  0.565601 *  0.230779 *   2.43600    1.000000    
    178 Ti    c    0.649021 *  0.732423 *  0.228601 *   2.43600    1.000000    
    179 Ti    c    0.565789 *  0.565622 *  0.230640 *   2.43600    1.000000    
    180 Ti    c    0.482340 *  0.732436 *  0.228488 *   2.43600    1.000000    
    181 O2    c    0.394780 *  0.726852 *  0.349463 *  -1.21800    1.000000    
    182 O2    c    0.236401 *  0.402185 *  0.349537 *  -1.21800    1.000000    
    183 O2    c    0.064684 *  0.402368 *  0.350499 *  -1.21800    1.000000    
    184 O3    c    0.892552 *  0.403653 *  0.349532 *  -0.33800    1.000000    
    185 H22   c    0.892552 *  0.403653 *  0.359532 *   0.12000    1.000000    
    186 O2    c    0.813387 *  0.235251 *  0.352173 *  -1.21800    1.000000    
    187 O2    c    0.564567 *  0.400755 *  0.349510 *  -1.21800    1.000000    
    188 O2    c    0.398463 *  0.400047 *  0.350422 *  -1.21800    1.000000    
    189 O2    c    0.231606 *  0.068752 *  0.349898 *  -1.21800    1.000000    
    190 O2    c    0.066187 *  0.066759 *  0.349998 *  -1.21800    1.000000    
    191 O2    c    0.897108 *  0.065349 *  0.349812 *  -1.21800    1.000000    
    192 O2    c    0.733791 *  0.065659 *  0.349712 *  -1.21800    1.000000    
    193 O2    c    0.565685 *  0.064503 *  0.350154 *  -1.21800    1.000000    
    194 O2    c    0.399094 *  0.070974 *  0.350028 *  -1.21800    1.000000    
    195 O3    c    0.231557 *  0.731636 *  0.349833 *  -0.33800    1.000000    
    196 H22   c    0.225181 *  0.743936 *  0.357938 *   0.12000    1.000000    
    197 O2    c    0.071596 *  0.727209 *  0.349209 *  -1.21800    1.000000    
    198 O2    c    0.899302 *  0.730230 *  0.350392 *  -1.21800    1.000000    
    199 O2    c    0.732186 *  0.732015 *  0.350242 *  -1.21800    1.000000    
    200 O2    c    0.565248 *  0.731438 *  0.350270 *  -1.21800    1.000000    
    201 O2    c    0.147672 *  0.173331 *  0.340580 *  -1.21800    1.000000    
    202 O2    c    0.980573 *  0.172250 *  0.341258 *  -1.21800    1.000000    
    203 O2    c    0.815402 *  0.163193 *  0.336622 *  -1.21800    1.000000    
    204 O2    c    0.648797 *  0.172341 *  0.341168 *  -1.21800    1.000000    
    205 O2    c    0.484651 *  0.174495 *  0.340778 *  -1.21800    1.000000    
    206 O2    c    0.315580 *  0.174515 *  0.340737 *  -1.21800    1.000000    
    207 O2    c    0.152444 *  0.830276 *  0.338717 *  -1.21800    1.000000    
    208 O2    c    0.980993 *  0.835315 *  0.340680 *  -1.21800    1.000000    
    209 O2    c    0.815822 *  0.837370 *  0.340825 *  -1.21800    1.000000    
    210 O2    c    0.647856 *  0.837271 *  0.340709 *  -1.21800    1.000000    
    211 O2    c    0.480749 *  0.836953 *  0.340913 *  -1.21800    1.000000    
    212 O2    c    0.318195 *  0.832995 *  0.340126 *  -1.21800    1.000000    
    213 O2    c    0.983535 *  0.506116 *  0.340823 *  -1.21800    1.000000    
    214 O2    c    0.477900 *  0.502083 *  0.340741 *  -1.21800    1.000000    
    215 O2    c    0.318707 *  0.503056 *  0.340498 *  -1.21800    1.000000    
    216 O2    c    0.149598 *  0.505884 *  0.340771 *  -1.21800    1.000000    
    217 O2    c    0.819091 *  0.502449 *  0.338548 *  -1.21800    1.000000    
    218 O2    c    0.641335 *  0.500863 *  0.339458 *  -1.21800    1.000000    
    219 O2    c    0.312825 *  0.626887 *  0.340514 *  -1.21800    1.000000    
    220 O2    c    0.149774 *  0.294723 *  0.341145 *  -1.21800    1.000000    
    221 O2    c    0.981820 *  0.295271 *  0.341617 *  -1.21800    1.000000    
    222 O2    c    0.812938 *  0.304263 *  0.336640 *  -1.21800    1.000000    
    223 O2    c    0.649657 *  0.296760 *  0.341512 *  -1.21800    1.000000    
    224 O2    c    0.479704 *  0.297490 *  0.341052 *  -1.21800    1.000000    
    225 O2    c    0.318455 *  0.297073 *  0.340826 *  -1.21800    1.000000    
    226 O2    c    0.981127 *  0.960046 *  0.340669 *  -1.21800    1.000000    
    227 O2    c    0.481569 *  0.959219 *  0.340779 *  -1.21800    1.000000    
    228 O2    c    0.319030 *  0.961073 *  0.340438 *  -1.21800    1.000000    
    229 O2    c    0.153008 *  0.628100 *  0.340190 *  -1.21800    1.000000    
    230 O2    c    0.983070 *  0.626824 *  0.340661 *  -1.21800    1.000000    
    231 O2    c    0.816982 *  0.626534 *  0.340599 *  -1.21800    1.000000    
    232 O2    c    0.646585 *  0.626252 *  0.340623 *  -1.21800    1.000000    
    233 O2    c    0.481748 *  0.625215 *  0.340716 *  -1.21800    1.000000    
    234 O2    c    0.150337 *  0.963696 *  0.338965 *  -1.21800    1.000000    
    235 O2    c    0.815145 *  0.958462 *  0.340401 *  -1.21800    1.000000    
    236 O2    c    0.647913 *  0.958307 *  0.340843 *  -1.21800    1.000000    
    237 O2    c    0.402179 *  0.729603 *  0.328864 *  -1.21800    1.000000    
    238 O2    c    0.229628 *  0.400396 *  0.328937 *  -1.21800    1.000000    
    239 O2    c    0.066963 *  0.399269 *  0.329654 *  -1.21800    1.000000    
    240 O2    c    0.905408 *  0.402764 *  0.328815 *  -1.21800    1.000000    
    241 O2    c    0.728578 *  0.402300 *  0.329240 *  -1.21800    1.000000    
    242 O2    c    0.565883 *  0.396198 *  0.328728 *  -1.21800    1.000000    
    243 O2    c    0.399097 *  0.399399 *  0.330467 *  -1.21800    1.000000    
    244 O2    c    0.234666 *  0.069548 *  0.329315 *  -1.21800    1.000000    
    245 O2    c    0.065271 *  0.069399 *  0.329316 *  -1.21800    1.000000    
    246 O2    c    0.901555 *  0.059874 *  0.329106 *  -1.21800    1.000000    
    247 O2    c    0.727847 *  0.059944 *  0.329114 *  -1.21800    1.000000    
    248 O2    c    0.564315 *  0.065941 *  0.329487 *  -1.21800    1.000000    
    249 O2    c    0.399854 *  0.067663 *  0.329471 *  -1.21800    1.000000    
    250 O2    c    0.234185 *  0.728251 *  0.329957 *  -1.21800    1.000000    
    251 O2    c    0.061349 *  0.728485 *  0.328573 *  -1.21800    1.000000    
    252 O2    c    0.898403 *  0.731431 *  0.329515 *  -1.21800    1.000000    
    253 O2    c    0.731431 *  0.732626 *  0.329531 *  -1.21800    1.000000    
    254 O2    c    0.564370 *  0.731580 *  0.329510 *  -1.21800    1.000000    
    255 O2    c    0.398020 *  0.566196 *  0.322693 *  -1.21800    1.000000    
    256 O2    c    0.233372 *  0.234624 *  0.323086 *  -1.21800    1.000000    
    257 O2    c    0.067223 *  0.234176 *  0.323195 *  -1.21800    1.000000    
    258 O2    c    0.904269 *  0.234039 *  0.323749 *  -1.21800    1.000000    
    259 O2    c    0.725523 *  0.232862 *  0.323636 *  -1.21800    1.000000    
    260 O2    c    0.563562 *  0.235096 *  0.323173 *  -1.21800    1.000000    
    261 O2    c    0.399020 *  0.233743 *  0.322974 *  -1.21800    1.000000    
    262 O2    c    0.236198 *  0.898339 *  0.323475 *  -1.21800    1.000000    
    263 O2    c    0.063540 *  0.897578 *  0.323669 *  -1.21800    1.000000    
    264 O2    c    0.897703 *  0.897721 *  0.322977 *  -1.21800    1.000000    
    265 O2    c    0.731301 *  0.897775 *  0.322936 *  -1.21800    1.000000    
    266 O2    c    0.564793 *  0.898283 *  0.322986 *  -1.21800    1.000000    
    267 O2    c    0.400553 *  0.897853 *  0.322930 *  -1.21800    1.000000    
    268 O2    c    0.233536 *  0.564233 *  0.322647 *  -1.21800    1.000000    
    269 O2    c    0.067185 *  0.566192 *  0.322823 *  -1.21800    1.000000    
    270 O2    c    0.901867 *  0.567376 *  0.322721 *  -1.21800    1.000000    
    271 O2    c    0.730565 *  0.566258 *  0.323402 *  -1.21800    1.000000    
    272 O2    c    0.561835 *  0.565519 *  0.322804 *  -1.21800    1.000000    
    273 O2    c    0.315621 *  0.666853 *  0.312479 *  -1.21800    1.000000    
    274 O2    c    0.316281 *  0.463779 *  0.312743 *  -1.21800    1.000000    
    275 O2    c    0.149236 *  0.334061 *  0.312316 *  -1.21800    1.000000    
    276 O2    c    0.149950 *  0.131984 *  0.312473 *  -1.21800    1.000000    
    277 O2    c    0.983687 *  0.334187 *  0.312233 *  -1.21800    1.000000    
    278 O2    c    0.982646 *  0.131294 *  0.312398 *  -1.21800    1.000000    
    279 O2    c    0.815565 *  0.335117 *  0.312600 *  -1.21800    1.000000    
    280 O2    c    0.815181 *  0.130270 *  0.312607 *  -1.21800    1.000000    
    281 O2    c    0.648442 *  0.334155 *  0.312153 *  -1.21800    1.000000    
    282 O2    c    0.647349 *  0.131031 *  0.312490 *  -1.21800    1.000000    
    283 O2    c    0.480777 *  0.334809 *  0.312591 *  -1.21800    1.000000    
    284 O2    c    0.482041 *  0.131859 *  0.312535 *  -1.21800    1.000000    
    285 O2    c    0.316081 *  0.335303 *  0.312923 *  -1.21800    1.000000    
    286 O2    c    0.316302 *  0.132209 *  0.312439 *  -1.21800    1.000000    
    287 O2    c    0.149624 *  0.000564 *  0.312783 *  -1.21800    1.000000    
    288 O2    c    0.149727 *  0.795604 *  0.313038 *  -1.21800    1.000000    
    289 O2    c    0.983369 *  0.999732 *  0.312258 *  -1.21800    1.000000    
    290 O2    c    0.981597 *  0.797285 *  0.312210 *  -1.21800    1.000000    
    291 O2    c    0.815060 *  0.999570 *  0.312313 *  -1.21800    1.000000    
    292 O2    c    0.815048 *  0.797182 *  0.312459 *  -1.21800    1.000000    
    293 O2    c    0.647462 *  0.999354 *  0.312250 *  -1.21800    1.000000    
    294 O2    c    0.648308 *  0.797286 *  0.312493 *  -1.21800    1.000000    
    295 O2    c    0.481773 *  0.000092 *  0.312518 *  -1.21800    1.000000    
    296 O2    c    0.482563 *  0.797392 *  0.312257 *  -1.21800    1.000000    
    297 O2    c    0.316273 *  0.000519 *  0.312573 *  -1.21800    1.000000    
    298 O2    c    0.315979 *  0.795886 *  0.312792 *  -1.21800    1.000000    
    299 O2    c    0.150276 *  0.667136 *  0.312576 *  -1.21800    1.000000    
    300 O2    c    0.149128 *  0.465159 *  0.312224 *  -1.21800    1.000000    
    301 O2    c    0.982117 *  0.666483 *  0.311864 *  -1.21800    1.000000    
    302 O2    c    0.983962 *  0.465363 *  0.312032 *  -1.21800    1.000000    
    303 O2    c    0.815057 *  0.666507 *  0.312595 *  -1.21800    1.000000    
    304 O2    c    0.815517 *  0.464054 *  0.312563 *  -1.21800    1.000000    
    305 O2    c    0.647984 *  0.666444 *  0.312577 *  -1.21800    1.000000    
    306 O2    c    0.648001 *  0.464359 *  0.312170 *  -1.21800    1.000000    
    307 O2    c    0.482107 *  0.666212 *  0.312068 *  -1.21800    1.000000    
    308 O2    c    0.480923 *  0.463689 *  0.312687 *  -1.21800    1.000000    
    309 O2    c    0.398682 *  0.564685 *  0.301304 *  -1.21800    1.000000    
    310 O2    c    0.232528 *  0.233932 *  0.301665 *  -1.21800    1.000000    
    311 O2    c    0.065330 *  0.232390 *  0.301784 *  -1.21800    1.000000    
    312 O2    c    0.897284 *  0.232877 *  0.302296 *  -1.21800    1.000000    
    313 O2    c    0.733682 *  0.232623 *  0.302229 *  -1.21800    1.000000    
    314 O2    c    0.565553 *  0.233424 *  0.301726 *  -1.21800    1.000000    
    315 O2    c    0.398779 *  0.234114 *  0.301620 *  -1.21800    1.000000    
    316 O2    c    0.231372 *  0.897464 *  0.302120 *  -1.21800    1.000000    
    317 O2    c    0.067540 *  0.897454 *  0.302171 *  -1.21800    1.000000    
    318 O2    c    0.899528 *  0.898698 *  0.301707 *  -1.21800    1.000000    
    319 O2    c    0.732080 *  0.898349 *  0.301569 *  -1.21800    1.000000    
    320 O2    c    0.565375 *  0.898494 *  0.301545 *  -1.21800    1.000000    
    321 O2    c    0.398075 *  0.897972 *  0.301662 *  -1.21800    1.000000    
    322 O2    c    0.232479 *  0.565698 *  0.301309 *  -1.21800    1.000000    
    323 O2    c    0.066251 *  0.566876 *  0.301326 *  -1.21800    1.000000    
    324 O2    c    0.897485 *  0.564915 *  0.301518 *  -1.21800    1.000000    
    325 O2    c    0.732211 *  0.565178 *  0.301804 *  -1.21800    1.000000    
    326 O2    c    0.566038 *  0.564499 *  0.301487 *  -1.21800    1.000000    
    327 O2    c    0.398261 *  0.731842 *  0.295496 *  -1.21800    1.000000    
    328 O2    c    0.233414 *  0.399546 *  0.295543 *  -1.21800    1.000000    
    329 O2    c    0.066638 *  0.399516 *  0.295698 *  -1.21800    1.000000    
    330 O2    c    0.898788 *  0.399570 *  0.295605 *  -1.21800    1.000000    
    331 O2    c    0.731830 *  0.399580 *  0.295552 *  -1.21800    1.000000    
    332 O2    c    0.564316 *  0.399307 *  0.295430 *  -1.21800    1.000000    
    333 O2    c    0.398600 *  0.399454 *  0.295531 *  -1.21800    1.000000    
    334 O2    c    0.232695 *  0.065815 *  0.295898 *  -1.21800    1.000000    
    335 O2    c    0.066379 *  0.065822 *  0.295890 *  -1.21800    1.000000    
    336 O2    c    0.898878 *  0.065408 *  0.295841 *  -1.21800    1.000000    
    337 O2    c    0.731679 *  0.065443 *  0.295826 *  -1.21800    1.000000    
    338 O2    c    0.564871 *  0.065647 *  0.295847 *  -1.21800    1.000000    
    339 O2    c    0.398983 *  0.065971 *  0.295873 *  -1.21800    1.000000    
    340 O2    c    0.232521 *  0.731873 *  0.295528 *  -1.21800    1.000000    
    341 O2    c    0.066868 *  0.732031 *  0.295480 *  -1.21800    1.000000    
    342 O2    c    0.898818 *  0.731909 *  0.295743 *  -1.21800    1.000000    
    343 O2    c    0.731761 *  0.731791 *  0.295847 *  -1.21800    1.000000    
    344 O2    c    0.565072 *  0.731930 *  0.295722 *  -1.21800    1.000000    
    345 O2    c    0.315642 *  0.500889 *  0.284802 *  -1.21800    1.000000    
    346 O2    c    0.315696 *  0.630263 *  0.284833 *  -1.21800    1.000000    
    347 O2    c    0.149200 *  0.167832 *  0.285160 *  -1.21800    1.000000    
    348 O2    c    0.149088 *  0.297434 *  0.285040 *  -1.21800    1.000000    
    349 O2    c    0.981991 *  0.167654 *  0.285304 *  -1.21800    1.000000    
    350 O2    c    0.982121 *  0.297318 *  0.285241 *  -1.21800    1.000000    
    351 O2    c    0.815493 *  0.167234 *  0.285128 *  -1.21800    1.000000    
    352 O2    c    0.815492 *  0.297656 *  0.285052 *  -1.21800    1.000000    
    353 O2    c    0.648881 *  0.167765 *  0.285316 *  -1.21800    1.000000    
    354 O2    c    0.648919 *  0.297332 *  0.285172 *  -1.21800    1.000000    
    355 O2    c    0.482132 *  0.167909 *  0.285167 *  -1.21800    1.000000    
    356 O2    c    0.482080 *  0.297455 *  0.284979 *  -1.21800    1.000000    
    357 O2    c    0.315669 *  0.167921 *  0.285148 *  -1.21800    1.000000    
    358 O2    c    0.315677 *  0.297571 *  0.284966 *  -1.21800    1.000000    
    359 O2    c    0.149308 *  0.833565 *  0.285015 *  -1.21800    1.000000    
    360 O2    c    0.149234 *  0.963798 *  0.285220 *  -1.21800    1.000000    
    361 O2    c    0.982783 *  0.833841 *  0.285129 *  -1.21800    1.000000    
    362 O2    c    0.982986 *  0.963514 *  0.285242 *  -1.21800    1.000000    
    363 O2    c    0.815616 *  0.833992 *  0.285062 *  -1.21800    1.000000    
    364 O2    c    0.815578 *  0.963571 *  0.285071 *  -1.21800    1.000000    
    365 O2    c    0.648668 *  0.833918 *  0.284994 *  -1.21800    1.000000    
    366 O2    c    0.648566 *  0.963608 *  0.285005 *  -1.21800    1.000000    
    367 O2    c    0.481896 *  0.833897 *  0.284995 *  -1.21800    1.000000    
    368 O2    c    0.481862 *  0.963546 *  0.285117 *  -1.21800    1.000000    
    369 O2    c    0.315300 *  0.833805 *  0.285089 *  -1.21800    1.000000    
    370 O2    c    0.315354 *  0.963578 *  0.285275 *  -1.21800    1.000000    
    371 O2    c    0.149232 *  0.500988 *  0.284819 *  -1.21800    1.000000    
    372 O2    c    0.149316 *  0.630456 *  0.284758 *  -1.21800    1.000000    
    373 O2    c    0.982505 *  0.501069 *  0.284935 *  -1.21800    1.000000    
    374 O2    c    0.982131 *  0.630334 *  0.284905 *  -1.21800    1.000000    
    375 O2    c    0.815224 *  0.500654 *  0.284839 *  -1.21800    1.000000    
    376 O2    c    0.815223 *  0.630424 *  0.284944 *  -1.21800    1.000000    
    377 O2    c    0.648729 *  0.500619 *  0.284839 *  -1.21800    1.000000    
    378 O2    c    0.648798 *  0.630281 *  0.284996 *  -1.21800    1.000000    
    379 O2    c    0.482022 *  0.500772 *  0.284847 *  -1.21800    1.000000    
    380 O2    c    0.482166 *  0.630106 *  0.284940 *  -1.21800    1.000000    
    381 O2    c    0.399205 *  0.731943 *  0.273958 *  -1.21800    1.000000    
    382 O2    c    0.232002 *  0.399181 *  0.273946 *  -1.21800    1.000000    
    383 O2    c    0.065517 *  0.399135 *  0.274072 *  -1.21800    1.000000    
    384 O2    c    0.899377 *  0.399337 *  0.274070 *  -1.21800    1.000000    
    385 O2    c    0.732197 *  0.398977 *  0.273980 *  -1.21800    1.000000    
    386 O2    c    0.565606 *  0.398881 *  0.273901 *  -1.21800    1.000000    
    387 O2    c    0.398807 *  0.399185 *  0.273874 *  -1.21800    1.000000    
    388 O2    c    0.232439 *  0.065926 *  0.274313 *  -1.21800    1.000000    
    389 O2    c    0.065688 *  0.065969 *  0.274337 *  -1.21800    1.000000    
    390 O2    c    0.899185 *  0.065187 *  0.274321 *  -1.21800    1.000000    
    391 O2    c    0.731996 *  0.065403 *  0.274287 *  -1.21800    1.000000    
    392 O2    c    0.565374 *  0.065872 *  0.274278 *  -1.21800    1.000000    
    393 O2    c    0.398793 *  0.065725 *  0.274290 *  -1.21800    1.000000    
    394 O2    c    0.232492 *  0.731793 *  0.273898 *  -1.21800    1.000000    
    395 O2    c    0.065189 *  0.731770 *  0.273971 *  -1.21800    1.000000    
    396 O2    c    0.898626 *  0.732261 *  0.274133 *  -1.21800    1.000000    
    397 O2    c    0.732127 *  0.732372 *  0.274188 *  -1.21800    1.000000    
    398 O2    c    0.565716 *  0.732033 *  0.274095 *  -1.21800    1.000000    
    399 O2    c    0.398755 *  0.565582 *  0.268174 *  -1.21800    1.000000    
    400 O2    c    0.232567 *  0.232597 *  0.268504 *  -1.21800    1.000000    
    401 O2    c    0.065979 *  0.232521 *  0.268674 *  -1.21800    1.000000    
    402 O2    c    0.899211 *  0.232512 *  0.268894 *  -1.21800    1.000000    
    403 O2    c    0.731658 *  0.232470 *  0.268848 *  -1.21800    1.000000    
    404 O2    c    0.565160 *  0.232525 *  0.268583 *  -1.21800    1.000000    
    405 O2    c    0.398842 *  0.232563 *  0.268465 *  -1.21800    1.000000    
    406 O2    c    0.232652 *  0.898802 *  0.268735 *  -1.21800    1.000000    
    407 O2    c    0.065734 *  0.898735 *  0.268786 *  -1.21800    1.000000    
    408 O2    c    0.898895 *  0.898762 *  0.268640 *  -1.21800    1.000000    
    409 O2    c    0.732015 *  0.898751 *  0.268511 *  -1.21800    1.000000    
    410 O2    c    0.565301 *  0.898768 *  0.268473 *  -1.21800    1.000000    
    411 O2    c    0.398908 *  0.898779 *  0.268544 *  -1.21800    1.000000    
    412 O2    c    0.232536 *  0.565610 *  0.268161 *  -1.21800    1.000000    
    413 O2    c    0.065940 *  0.565665 *  0.268254 *  -1.21800    1.000000    
    414 O2    c    0.899146 *  0.565601 *  0.268411 *  -1.21800    1.000000    
    415 O2    c    0.731934 *  0.565633 *  0.268478 *  -1.21800    1.000000    
    416 O2    c    0.565069 *  0.565570 *  0.268334 *  -1.21800    1.000000    
    417 O2    c    0.315698 *  0.666704 *  0.257273 *  -1.21800    1.000000    
    418 O2    c    0.315565 *  0.464469 *  0.257274 *  -1.21800    1.000000    
    419 O2    c    0.148955 *  0.333544 *  0.257449 *  -1.21800    1.000000    
    420 O2    c    0.149075 *  0.131254 *  0.257654 *  -1.21800    1.000000    
    421 O2    c    0.982358 *  0.333492 *  0.257536 *  -1.21800    1.000000    
    422 O2    c    0.982326 *  0.131205 *  0.257722 *  -1.21800    1.000000    
    423 O2    c    0.815619 *  0.333510 *  0.257583 *  -1.21800    1.000000    
    424 O2    c    0.815552 *  0.131137 *  0.257769 *  -1.21800    1.000000    
    425 O2    c    0.648815 *  0.333478 *  0.257457 *  -1.21800    1.000000    
    426 O2    c    0.648748 *  0.131196 *  0.257677 *  -1.21800    1.000000    
    427 O2    c    0.482135 *  0.333564 *  0.257383 *  -1.21800    1.000000    
    428 O2    c    0.482109 *  0.131228 *  0.257610 *  -1.21800    1.000000    
    429 O2    c    0.315577 *  0.333612 *  0.257387 *  -1.21800    1.000000    
    430 O2    c    0.315644 *  0.131257 *  0.257597 *  -1.21800    1.000000    
    431 O2    c    0.149063 *  0.000091 *  0.257735 *  -1.21800    1.000000    
    432 O2    c    0.149009 *  0.797611 *  0.257535 *  -1.21800    1.000000    
    433 O2    c    0.982457 *  0.000014 *  0.257693 *  -1.21800    1.000000    
    434 O2    c    0.982242 *  0.797730 *  0.257522 *  -1.21800    1.000000    
    435 O2    c    0.815557 *  0.000026 *  0.257638 *  -1.21800    1.000000    
    436 O2    c    0.815495 *  0.797793 *  0.257506 *  -1.21800    1.000000    
    437 O2    c    0.648703 *  0.000064 *  0.257596 *  -1.21800    1.000000    
    438 O2    c    0.648787 *  0.797774 *  0.257472 *  -1.21800    1.000000    
    439 O2    c    0.482102 *  0.000098 *  0.257618 *  -1.21800    1.000000    
    440 O2    c    0.482224 *  0.797712 *  0.257443 *  -1.21800    1.000000    
    441 O2    c    0.315585 *  0.000088 *  0.257665 *  -1.21800    1.000000    
    442 O2    c    0.315650 *  0.797651 *  0.257465 *  -1.21800    1.000000    
    443 O2    c    0.149027 *  0.666734 *  0.257304 *  -1.21800    1.000000    
    444 O2    c    0.148970 *  0.464547 *  0.257315 *  -1.21800    1.000000    
    445 O2    c    0.982165 *  0.666699 *  0.257379 *  -1.21800    1.000000    
    446 O2    c    0.982399 *  0.464596 *  0.257370 *  -1.21800    1.000000    
    447 O2    c    0.815455 *  0.666718 *  0.257481 *  -1.21800    1.000000    
    448 O2    c    0.815573 *  0.464510 *  0.257428 *  -1.21800    1.000000    
    449 O2    c    0.648807 *  0.666696 *  0.257456 *  -1.21800    1.000000    
    450 O2    c    0.648791 *  0.464483 *  0.257363 *  -1.21800    1.000000    
    451 O2    c    0.482239 *  0.666684 *  0.257348 *  -1.21800    1.000000    
    452 O2    c    0.482152 *  0.464447 *  0.257299 *  -1.21800    1.000000    
    453 O2    c    0.399080 *  0.565498 *  0.246794 *  -1.21800    1.000000    
    454 O2    c    0.232104 *  0.232471 *  0.247122 *  -1.21800    1.000000    
    455 O2    c    0.065270 *  0.232342 *  0.247283 *  -1.21800    1.000000    
    456 O2    c    0.898679 *  0.232290 *  0.247451 *  -1.21800    1.000000    
    457 O2    c    0.732561 *  0.232290 *  0.247405 *  -1.21800    1.000000    
    458 O2    c    0.565851 *  0.232357 *  0.247193 *  -1.21800    1.000000    
    459 O2    c    0.398963 *  0.232485 *  0.247079 *  -1.21800    1.000000    
    460 O2    c    0.232034 *  0.898776 *  0.247292 *  -1.21800    1.000000    
    461 O2    c    0.065865 *  0.898793 *  0.247349 *  -1.21800    1.000000    
    462 O2    c    0.899245 *  0.898931 *  0.247264 *  -1.21800    1.000000    
    463 O2    c    0.732321 *  0.898993 *  0.247157 *  -1.21800    1.000000    
    464 O2    c    0.565405 *  0.898967 *  0.247107 *  -1.21800    1.000000    
    465 O2    c    0.398601 *  0.898881 *  0.247156 *  -1.21800    1.000000    
    466 O2    c    0.232232 *  0.565615 *  0.246783 *  -1.21800    1.000000    
    467 O2    c    0.065423 *  0.565724 *  0.246885 *  -1.21800    1.000000    
    468 O2    c    0.898623 *  0.565637 *  0.247023 *  -1.21800    1.000000    
    469 O2    c    0.732241 *  0.565570 *  0.247058 *  -1.21800    1.000000    
    470 O2    c    0.565801 *  0.565535 *  0.246932 *  -1.21800    1.000000    
    471 O2    c    0.398812 *  0.732333 *  0.240386 *  -1.21800    1.000000    
    472 O2    c    0.232420 *  0.398945 *  0.240359 *  -1.21800    1.000000    
    473 O2    c    0.065774 *  0.398931 *  0.240471 *  -1.21800    1.000000    
    474 O2    c    0.898903 *  0.398924 *  0.240529 *  -1.21800    1.000000    
    475 O2    c    0.732092 *  0.398944 *  0.240472 *  -1.21800    1.000000    
    476 O2    c    0.565364 *  0.398980 *  0.240363 *  -1.21800    1.000000    
    477 O2    c    0.398880 *  0.398966 *  0.240300 *  -1.21800    1.000000    
    478 O2    c    0.232358 *  0.065573 *  0.240726 *  -1.21800    1.000000    
    479 O2    c    0.065750 *  0.065605 *  0.240774 *  -1.21800    1.000000    
    480 O2    c    0.898932 *  0.065668 *  0.240783 *  -1.21800    1.000000    
    481 O2    c    0.732122 *  0.065689 *  0.240740 *  -1.21800    1.000000    
    482 O2    c    0.565404 *  0.065630 *  0.240688 *  -1.21800    1.000000    
    483 O2    c    0.398885 *  0.065592 *  0.240682 *  -1.21800    1.000000    
    484 O2    c    0.232340 *  0.732384 *  0.240362 *  -1.21800    1.000000    
    485 O2    c    0.065798 *  0.732362 *  0.240442 *  -1.21800    1.000000    
    486 O2    c    0.898978 *  0.732283 *  0.240541 *  -1.21800    1.000000    
    487 O2    c    0.732118 *  0.732230 *  0.240564 *  -1.21800    1.000000    
    488 O2    c    0.565372 *  0.732261 *  0.240483 *  -1.21800    1.000000    
    489 O2    c    0.315610 *  0.504955 *  0.229075 *  -1.21800    1.000000    
    490 O2    c    0.148720 *  0.171601 *  0.229546 *  -1.21800    1.000000    
    491 O2    c    0.982028 *  0.171546 *  0.229643 *  -1.21800    1.000000    
    492 O2    c    0.815623 *  0.171505 *  0.229646 *  -1.21800    1.000000    
    493 O2    c    0.649151 *  0.171563 *  0.229573 *  -1.21800    1.000000    
    494 O2    c    0.482371 *  0.171612 *  0.229473 *  -1.21800    1.000000    
    495 O2    c    0.315535 *  0.171620 *  0.229464 *  -1.21800    1.000000    
    496 O2    c    0.148892 *  0.838314 *  0.229416 *  -1.21800    1.000000    
    497 O2    c    0.982408 *  0.838343 *  0.229473 *  -1.21800    1.000000    
    498 O2    c    0.815728 *  0.838389 *  0.229461 *  -1.21800    1.000000    
    499 O2    c    0.648914 *  0.838396 *  0.229398 *  -1.21800    1.000000    
    500 O2    c    0.482108 *  0.838388 *  0.229347 *  -1.21800    1.000000    
    501 O2    c    0.315404 *  0.838357 *  0.229360 *  -1.21800    1.000000    
    502 O2    c    0.148802 *  0.504956 *  0.229150 *  -1.21800    1.000000    
    503 O2    c    0.982089 *  0.504937 *  0.229270 *  -1.21800    1.000000    
    504 O2    c    0.815496 *  0.504893 *  0.229304 *  -1.21800    1.000000    
    505 O2    c    0.649009 *  0.504892 *  0.229232 *  -1.21800    1.000000    
    506 O2    c    0.482409 *  0.504931 *  0.229115 *  -1.21800    1.000000    
    507 O2    c    0.315622 *  0.626264 *  0.229112 *  -1.21800    1.000000    
    508 O2    c    0.148712 *  0.292883 *  0.229378 *  -1.21800    1.000000    
    509 O2    c    0.982048 *  0.292915 *  0.229525 *  -1.21800    1.000000    
    510 O2    c    0.815625 *  0.292943 *  0.229552 *  -1.21800    1.000000    
    511 O2    c    0.649138 *  0.292891 *  0.229455 *  -1.21800    1.000000    
    512 O2    c    0.482374 *  0.292865 *  0.229306 *  -1.21800    1.000000    
    513 O2    c    0.315526 *  0.292873 *  0.229271 *  -1.21800    1.000000    
    514 O2    c    0.148891 *  0.959721 *  0.229590 *  -1.21800    1.000000    
    515 O2    c    0.982432 *  0.959704 *  0.229609 *  -1.21800    1.000000    
    516 O2    c    0.815717 *  0.959683 *  0.229543 *  -1.21800    1.000000    
    517 O2    c    0.648902 *  0.959681 *  0.229461 *  -1.21800    1.000000    
    518 O2    c    0.482119 *  0.959679 *  0.229448 *  -1.21800    1.000000    
    519 O2    c    0.315395 *  0.959691 *  0.229519 *  -1.21800    1.000000    
    520 O2    c    0.148813 *  0.626286 *  0.229144 *  -1.21800    1.000000    
    521 O2    c    0.982052 *  0.626312 *  0.229254 *  -1.21800    1.000000    
    522 O2    c    0.815499 *  0.626336 *  0.229320 *  -1.21800    1.000000    
    523 O2    c    0.649031 *  0.626318 *  0.229287 *  -1.21800    1.000000    
    524 O2    c    0.482397 *  0.626277 *  0.229183 *  -1.21800    1.000000    
    525 O2    c    0.399077 *  0.732424 *  0.219738 *  -1.21800    1.000000    
    526 O2    c    0.231947 *  0.398737 *  0.219709 *  -1.21800    1.000000    
    527 O2    c    0.065246 *  0.398737 *  0.219812 *  -1.21800    1.000000    
    528 O2    c    0.898889 *  0.398796 *  0.219859 *  -1.21800    1.000000    
    529 O2    c    0.732503 *  0.398641 *  0.219807 *  -1.21800    1.000000    
    530 O2    c    0.565897 *  0.398538 *  0.219710 *  -1.21800    1.000000    
    531 O2    c    0.398949 *  0.398694 *  0.219657 *  -1.21800    1.000000    
    532 O2    c    0.232067 *  0.065840 *  0.220070 *  -1.21800    1.000000    
    533 O2    c    0.065450 *  0.065806 *  0.220113 *  -1.21800    1.000000    
    534 O2    c    0.898981 *  0.065443 *  0.220119 *  -1.21800    1.000000    
    535 O2    c    0.732417 *  0.065491 *  0.220082 *  -1.21800    1.000000    
    536 O2    c    0.565694 *  0.065762 *  0.220039 *  -1.21800    1.000000    
    537 O2    c    0.398838 *  0.065746 *  0.220034 *  -1.21800    1.000000    
    538 O2    c    0.232141 *  0.732307 *  0.219713 *  -1.21800    1.000000    
    539 O2    c    0.065274 *  0.732335 *  0.219785 *  -1.21800    1.000000    
    540 O2    c    0.898737 *  0.732618 *  0.219877 *  -1.21800    1.000000    
    541 O2    c    0.732350 *  0.732736 *  0.219897 *  -1.21800    1.000000    
    542 O2    c    0.565846 *  0.732571 *  0.219828 *  -1.21800    1.000000    
    543 O176  c    0.733371 *  0.527445 *  0.355215 *  -1.08000    1.000000    
    544 O177  c    0.116456 *  0.929065 *  0.416897 *  -1.08000    1.000000    
    545 O176  c    0.732019 *  0.415840 *  0.350874 *  -1.08000    1.000000    
    546 O177  c    0.240535 *  0.925709 *  0.415836 *  -1.08000    1.000000    
    547 O176  c    0.217705 *  0.892625 *  0.355924 *  -1.08000    1.000000    
    548 O177  c    0.701068 *  0.486906 *  0.414015 *  -1.08000    1.000000    
    549 O176  c    0.092986 *  0.896191 *  0.356160 *  -1.08000    1.000000    
    550 O177  c    0.699438 *  0.374132 *  0.413198 *  -1.08000    1.000000    
    551 O171  c    0.186322 *  0.930703 *  0.441721 *  -2.00000    1.000000    
    552 O171  c    0.686688 *  0.430589 *  0.439263 *  -2.00000    1.000000    
    553 O170  c    0.275770 *  0.791357 *  0.447684 *  -1.08000    1.000000    
    554 O170  c    0.033036 *  0.013922 *  0.435933 *  -1.08000    1.000000    
    555 O170  c    0.337910 *  0.847369 *  0.434246 *  -1.08000    1.000000    
    556 O170  c    0.101205 *  0.072339 *  0.448329 *  -1.08000    1.000000    
    557 O170  c    0.336681 *  0.013897 *  0.433737 *  -1.08000    1.000000    
    558 O170  c    0.032044 *  0.848204 *  0.436125 *  -1.08000    1.000000    
    559 O170  c    0.276305 *  0.069541 *  0.447411 *  -1.08000    1.000000    
    560 O170  c    0.101184 *  0.789308 *  0.448337 *  -1.08000    1.000000    
    561 O170  c    0.190176 *  0.987752 *  0.467030 *  -1.08000    1.000000    
    562 O170  c    0.621131 *  0.430658 *  0.526293 *  -1.08000    1.000000    
    563 O170  c    0.189456 *  0.874548 *  0.467060 *  -1.08000    1.000000    
    564 O170  c    0.745288 *  0.430735 *  0.526278 *  -1.08000    1.000000    
    565 O170  c    0.746076 *  0.429715 *  0.465147 *  -1.08000    1.000000    
    566 O170  c    0.185198 *  0.987608 *  0.527485 *  -1.08000    1.000000    
    567 O170  c    0.622077 *  0.429650 *  0.464981 *  -1.08000    1.000000    
    568 O170  c    0.184572 *  0.874567 *  0.527472 *  -1.08000    1.000000    
    569 O170  c    0.534866 *  0.346784 *  0.445539 *  -1.08000    1.000000    
    570 O170  c    0.771111 *  0.573177 *  0.434213 *  -1.08000    1.000000    
    571 O170  c    0.597529 *  0.293857 *  0.431784 *  -1.08000    1.000000    
    572 O170  c    0.838418 *  0.512951 *  0.446493 *  -1.08000    1.000000    
    573 O170  c    0.771798 *  0.289732 *  0.433764 *  -1.08000    1.000000    
    574 O170  c    0.597432 *  0.568093 *  0.432153 *  -1.08000    1.000000    
    575 O170  c    0.839018 *  0.348180 *  0.446305 *  -1.08000    1.000000    
    576 O170  c    0.534694 *  0.513072 *  0.445660 *  -1.08000    1.000000    
    577 O171  c    0.683709 *  0.430925 *  0.551947 *  -2.00000    1.000000    
    578 O171  c    0.183715 *  0.930937 *  0.552980 *  -2.00000    1.000000    
    579 O170  c    0.771048 *  0.292326 *  0.558462 *  -1.08000    1.000000    
    580 O170  c    0.530393 *  0.514021 *  0.545464 *  -1.08000    1.000000    
    581 O170  c    0.836973 *  0.347823 *  0.545388 *  -1.08000    1.000000    
    582 O170  c    0.596731 *  0.569772 *  0.558457 *  -1.08000    1.000000    
    583 O170  c    0.836910 *  0.514054 *  0.545376 *  -1.08000    1.000000    
    584 O170  c    0.530293 *  0.347888 *  0.545512 *  -1.08000    1.000000    
    585 O170  c    0.770940 *  0.569596 *  0.558439 *  -1.08000    1.000000    
    586 O170  c    0.596874 *  0.292009 *  0.558461 *  -1.08000    1.000000    
    587 O170  c    0.683807 *  0.487450 *  0.577549 *  -1.08000    1.000000    
    588 O170  c    0.121897 *  0.931019 *  0.639583 *  -1.08000    1.000000    
    589 O170  c    0.683764 *  0.374483 *  0.577553 *  -1.08000    1.000000    
    590 O170  c    0.246013 *  0.930998 *  0.639572 *  -1.08000    1.000000    
    591 O170  c    0.245740 *  0.930871 *  0.578540 *  -1.08000    1.000000    
    592 O170  c    0.684081 *  0.487555 *  0.638163 *  -1.08000    1.000000    
    593 O170  c    0.121502 *  0.930905 *  0.578541 *  -1.08000    1.000000    
    594 O170  c    0.684040 *  0.374475 *  0.638167 *  -1.08000    1.000000    
    595 O170  c    0.030294 *  0.847747 *  0.559465 *  -1.08000    1.000000    
    596 O170  c    0.270670 *  0.070096 *  0.546599 *  -1.08000    1.000000    
    597 O170  c    0.096384 *  0.792215 *  0.546419 *  -1.08000    1.000000    
    598 O170  c    0.337234 *  0.014023 *  0.559520 *  -1.08000    1.000000    
    599 O170  c    0.270725 *  0.791897 *  0.546521 *  -1.08000    1.000000    
    600 O170  c    0.096334 *  0.069591 *  0.546409 *  -1.08000    1.000000    
    601 O170  c    0.337117 *  0.847733 *  0.559493 *  -1.08000    1.000000    
    602 O170  c    0.030301 *  0.014103 *  0.559468 *  -1.08000    1.000000    
    603 O171  c    0.184017 *  0.931033 *  0.665257 *  -2.00000    1.000000    
    604 O171  c    0.684042 *  0.431048 *  0.663652 *  -2.00000    1.000000    
    605 O170  c    0.271276 *  0.791636 *  0.671577 *  -1.08000    1.000000    
    606 O170  c    0.031540 *  0.013943 *  0.658548 *  -1.08000    1.000000    
    607 O170  c    0.336493 *  0.848189 *  0.658546 *  -1.08000    1.000000    
    608 O170  c    0.096816 *  0.070497 *  0.671570 *  -1.08000    1.000000    
    609 O170  c    0.336435 *  0.013983 *  0.658539 *  -1.08000    1.000000    
    610 O170  c    0.031563 *  0.848144 *  0.658559 *  -1.08000    1.000000    
    611 O170  c    0.271292 *  0.070411 *  0.671592 *  -1.08000    1.000000    
    612 O170  c    0.096807 *  0.791599 *  0.671587 *  -1.08000    1.000000    
    613 O170  c    0.183731 *  0.987370 *  0.690862 *  -1.08000    1.000000    
    614 O173  c    0.618329 *  0.434955 *  0.749055 *  -0.69000    1.000000    
    615 O170  c    0.183927 *  0.874366 *  0.690901 *  -1.08000    1.000000    
    616 O172  c    0.747019 *  0.434723 *  0.749303 *  -0.69000    1.000000    
    617 H21   c    0.742971 *  0.435263 *  0.757618 *   0.22000    1.000000    
    618 O170  c    0.746319 *  0.431289 *  0.689215 *  -1.08000    1.000000    
    619 O173  c    0.181354 *  0.990882 *  0.750759 *  -0.69000    1.000000    
    620 O170  c    0.622061 *  0.431492 *  0.689178 *  -1.08000    1.000000    
    621 O172  c    0.181574 *  0.873679 *  0.751007 *  -0.69000    1.000000    
    622 H21   c    0.181195 *  0.877367 *  0.759322 *   0.22000    1.000000    
    623 O170  c    0.531500 *  0.348029 *  0.670367 *  -1.08000    1.000000    
    624 O170  c    0.771353 *  0.570693 *  0.657346 *  -1.08000    1.000000    
    625 O170  c    0.596652 *  0.291431 *  0.657343 *  -1.08000    1.000000    
    626 O170  c    0.836652 *  0.514036 *  0.670347 *  -1.08000    1.000000    
    627 O170  c    0.771294 *  0.291370 *  0.657355 *  -1.08000    1.000000    
    628 O170  c    0.596711 *  0.570707 *  0.657326 *  -1.08000    1.000000    
    629 O170  c    0.836594 *  0.348038 *  0.670354 *  -1.08000    1.000000    
    630 O170  c    0.531399 *  0.514047 *  0.670324 *  -1.08000    1.000000    
    631 C912  c    0.728770 *  0.509418 *  0.378578 *  -0.07025    1.000000    
    632 C912  c    0.100532 *  0.918773 *  0.392883 *  -0.07025    1.000000    
    633 C912  c    0.727571 *  0.387370 *  0.376271 *  -0.07025    1.000000    
    634 C912  c    0.235367 *  0.914827 *  0.391526 *  -0.07025    1.000000    
    635 C912  c    0.229785 *  0.908151 *  0.379662 *  -0.07025    1.000000    
    636 C912  c    0.721271 *  0.501938 *  0.390417 *  -0.07025    1.000000    
    637 C912  c    0.094943 *  0.912436 *  0.380994 *  -0.07025    1.000000    
    638 C912  c    0.720477 *  0.379966 *  0.388187 *  -0.07025    1.000000    
    639 C916  c    0.733064 *  0.465015 *  0.358423 *   1.07050    1.000000    
    640 C917  c    0.176463 *  0.925364 *  0.411074 *   1.07050    1.000000    
    641 C916  c    0.155794 *  0.898118 *  0.361466 *   1.07050    1.000000    
    642 C917  c    0.704999 *  0.431795 *  0.408281 *   1.07050    1.000000    
    643 C902  c    0.730147 *  0.452459 *  0.371446 *   0.00500    1.000000    
    644 C902  c    0.170627 *  0.919555 *  0.398075 *   0.00500    1.000000    
    645 C902  c    0.159778 *  0.906581 *  0.374456 *   0.00500    1.000000    
    646 C902  c    0.716024 *  0.437364 *  0.395234 *   0.00500    1.000000    
    647 C912  c    0.376214 *  0.678988 *  0.447366 *  -0.07025    1.000000    
    648 C912  c    0.923834 *  0.122968 *  0.434544 *  -0.07025    1.000000    
    649 C912  c    0.447305 *  0.736033 *  0.432707 *  -0.07025    1.000000    
    650 C912  c    0.999139 *  0.185076 *  0.448097 *  -0.07025    1.000000    
    651 C912  c    0.446590 *  0.125314 *  0.432114 *  -0.07025    1.000000    
    652 C912  c    0.922542 *  0.739147 *  0.434949 *  -0.07025    1.000000    
    653 C912  c    0.376917 *  0.181422 *  0.447033 *  -0.07025    1.000000    
    654 C912  c    0.999251 *  0.676750 *  0.448275 *  -0.07025    1.000000    
    655 C912  c    0.188633 *  0.992853 *  0.491285 *  -0.07025    1.000000    
    656 C912  c    0.615875 *  0.430188 *  0.501668 *  -0.07025    1.000000    
    657 C912  c    0.187880 *  0.869589 *  0.491275 *  -0.07025    1.000000    
    658 C912  c    0.750572 *  0.430268 *  0.501698 *  -0.07025    1.000000    
    659 C912  c    0.750666 *  0.430053 *  0.489697 *  -0.07025    1.000000    
    660 C912  c    0.187566 *  0.992813 *  0.503236 *  -0.07025    1.000000    
    661 C912  c    0.615970 *  0.429980 *  0.489663 *  -0.07025    1.000000    
    662 C912  c    0.186855 *  0.869549 *  0.503225 *  -0.07025    1.000000    
    663 C912  c    0.426786 *  0.236057 *  0.446754 *  -0.07025    1.000000    
    664 C912  c    0.872196 *  0.684953 *  0.434628 *  -0.07025    1.000000    
    665 C912  c    0.496407 *  0.180079 *  0.431815 *  -0.07025    1.000000    
    666 C912  c    0.948708 *  0.622643 *  0.447992 *  -0.07025    1.000000    
    667 C912  c    0.873406 *  0.177094 *  0.434136 *  -0.07025    1.000000    
    668 C912  c    0.496898 *  0.681144 *  0.432383 *  -0.07025    1.000000    
    669 C912  c    0.948413 *  0.239005 *  0.447754 *  -0.07025    1.000000    
    670 C912  c    0.425912 *  0.624202 *  0.447066 *  -0.07025    1.000000    
    671 C913  c    0.330430 *  0.795261 *  0.440694 *   1.07050    1.000000    
    672 C913  c    0.043608 *  0.067324 *  0.441945 *   1.07050    1.000000    
    673 C913  c    0.330152 *  0.065785 *  0.440266 *   1.07050    1.000000    
    674 C913  c    0.043041 *  0.794663 *  0.442085 *   1.07050    1.000000    
    675 C913  c    0.189574 *  0.931200 *  0.472354 *   1.07050    1.000000    
    676 C913  c    0.683180 *  0.430595 *  0.520909 *   1.07050    1.000000    
    677 C913  c    0.683778 *  0.429738 *  0.470452 *   1.07050    1.000000    
    678 C913  c    0.185387 *  0.931109 *  0.522156 *   1.07050    1.000000    
    679 C913  c    0.542884 *  0.295965 *  0.438811 *   1.07050    1.000000    
    680 C913  c    0.828396 *  0.567061 *  0.440632 *   1.07050    1.000000    
    681 C913  c    0.828858 *  0.294787 *  0.440264 *   1.07050    1.000000    
    682 C913  c    0.542596 *  0.564779 *  0.439127 *   1.07050    1.000000    
    683 C902  c    0.386368 *  0.735346 *  0.440206 *   0.00500    1.000000    
    684 C902  c    0.987224 *  0.126663 *  0.441509 *   0.00500    1.000000    
    685 C902  c    0.386292 *  0.125559 *  0.439742 *   0.00500    1.000000    
    686 C902  c    0.986625 *  0.735324 *  0.441754 *   0.00500    1.000000    
    687 C902  c    0.188696 *  0.931235 *  0.485399 *   0.00500    1.000000    
    688 C902  c    0.683179 *  0.430342 *  0.507704 *   0.00500    1.000000    
    689 C902  c    0.683386 *  0.429924 *  0.483658 *   0.00500    1.000000    
    690 C902  c    0.186647 *  0.931163 *  0.509112 *   0.00500    1.000000    
    691 C902  c    0.487109 *  0.235850 *  0.439141 *   0.00500    1.000000    
    692 C902  c    0.884831 *  0.626344 *  0.441132 *   0.00500    1.000000    
    693 C902  c    0.885203 *  0.235432 *  0.440747 *   0.00500    1.000000    
    694 C902  c    0.486800 *  0.624829 *  0.439559 *   0.00500    1.000000    
    695 C912  c    0.870588 *  0.180919 *  0.559345 *  -0.07025    1.000000    
    696 C912  c    0.419913 *  0.625660 *  0.545246 *  -0.07025    1.000000    
    697 C912  c    0.947344 *  0.235980 *  0.545140 *  -0.07025    1.000000    
    698 C912  c    0.497028 *  0.681122 *  0.559360 *  -0.07025    1.000000    
    699 C912  c    0.947332 *  0.625865 *  0.545137 *  -0.07025    1.000000    
    700 C912  c    0.419806 *  0.236272 *  0.545316 *  -0.07025    1.000000    
    701 C912  c    0.870520 *  0.680973 *  0.559329 *  -0.07025    1.000000    
    702 C912  c    0.497191 *  0.180661 *  0.559379 *  -0.07025    1.000000    
    703 C912  c    0.683919 *  0.492559 *  0.601881 *  -0.07025    1.000000    
    704 C912  c    0.116392 *  0.930968 *  0.615062 *  -0.07025    1.000000    
    705 C912  c    0.683873 *  0.369414 *  0.601883 *  -0.07025    1.000000    
    706 C912  c    0.251233 *  0.930941 *  0.615040 *  -0.07025    1.000000    
    707 C912  c    0.251144 *  0.930913 *  0.603048 *  -0.07025    1.000000    
    708 C912  c    0.683978 *  0.492567 *  0.613843 *  -0.07025    1.000000    
    709 C912  c    0.116304 *  0.930946 *  0.603070 *  -0.07025    1.000000    
    710 C912  c    0.683932 *  0.369422 *  0.613845 *  -0.07025    1.000000    
    711 C912  c    0.919917 *  0.735939 *  0.559699 *  -0.07025    1.000000    
    712 C912  c    0.370311 *  0.181391 *  0.545702 *  -0.07025    1.000000    
    713 C912  c    0.996765 *  0.680805 *  0.545515 *  -0.07025    1.000000    
    714 C912  c    0.447745 *  0.125736 *  0.559754 *  -0.07025    1.000000    
    715 C912  c    0.370412 *  0.680543 *  0.545624 *  -0.07025    1.000000    
    716 C912  c    0.996753 *  0.181022 *  0.545512 *  -0.07025    1.000000    
    717 C912  c    0.447567 *  0.736039 *  0.559729 *  -0.07025    1.000000    
    718 C912  c    0.919964 *  0.125937 *  0.559710 *  -0.07025    1.000000    
    719 C913  c    0.827773 *  0.296109 *  0.551883 *   1.07050    1.000000    
    720 C913  c    0.539784 *  0.565845 *  0.551926 *   1.07050    1.000000    
    721 C913  c    0.827694 *  0.565784 *  0.551867 *   1.07050    1.000000    
    722 C913  c    0.539805 *  0.296005 *  0.551957 *   1.07050    1.000000    
    723 C913  c    0.683806 *  0.430972 *  0.582892 *   1.07050    1.000000    
    724 C913  c    0.183934 *  0.930997 *  0.634212 *   1.07050    1.000000    
    725 C913  c    0.183624 *  0.930895 *  0.583898 *   1.07050    1.000000    
    726 C913  c    0.684041 *  0.431009 *  0.632833 *   1.07050    1.000000    
    727 C913  c    0.039566 *  0.796011 *  0.552978 *   1.07050    1.000000    
    728 C913  c    0.327741 *  0.066009 *  0.553100 *   1.07050    1.000000    
    729 C913  c    0.327698 *  0.795855 *  0.553045 *   1.07050    1.000000    
    730 C913  c    0.039550 *  0.065820 *  0.552976 *   1.07050    1.000000    
    731 C902  c    0.883721 *  0.236281 *  0.552076 *   0.00500    1.000000    
    732 C902  c    0.483758 *  0.625600 *  0.552132 *   0.00500    1.000000    
    733 C902  c    0.883668 *  0.625595 *  0.552064 *   0.00500    1.000000    
    734 C902  c    0.483782 *  0.236254 *  0.552173 *   0.00500    1.000000    
    735 C902  c    0.683867 *  0.430983 *  0.595971 *   0.00500    1.000000    
    736 C902  c    0.183855 *  0.930968 *  0.621042 *   0.00500    1.000000    
    737 C902  c    0.183683 *  0.930919 *  0.597068 *   0.00500    1.000000    
    738 C902  c    0.683983 *  0.430999 *  0.619754 *   0.00500    1.000000    
    739 C902  c    0.983600 *  0.736196 *  0.552777 *   0.00500    1.000000    
    740 C902  c    0.383756 *  0.125767 *  0.552899 *   0.00500    1.000000    
    741 C902  c    0.383709 *  0.736087 *  0.552845 *   0.00500    1.000000    
    742 C902  c    0.983606 *  0.125649 *  0.552779 *   0.00500    1.000000    
    743 C912  c    0.371971 *  0.679327 *  0.671612 *  -0.07025    1.000000    
    744 C912  c    0.921970 *  0.124534 *  0.657448 *  -0.07025    1.000000    
    745 C912  c    0.446047 *  0.737582 *  0.657432 *  -0.07025    1.000000    
    746 C912  c    0.996097 *  0.182788 *  0.671621 *  -0.07025    1.000000    
    747 C912  c    0.446000 *  0.124585 *  0.657441 *  -0.07025    1.000000    
    748 C912  c    0.922028 *  0.737542 *  0.657447 *  -0.07025    1.000000    
    749 C912  c    0.372025 *  0.182718 *  0.671647 *  -0.07025    1.000000    
    750 C912  c    0.996118 *  0.679286 *  0.671625 *  -0.07025    1.000000    
    751 C912  c    0.182954 *  0.992603 *  0.715285 *  -0.07025    1.000000    
    752 C912  c    0.616281 *  0.433339 *  0.725558 *  -0.07025    1.000000    
    753 C912  c    0.183175 *  0.869655 *  0.715322 *  -0.07025    1.000000    
    754 C912  c    0.751402 *  0.433091 *  0.725596 *  -0.07025    1.000000    
    755 C912  c    0.751423 *  0.432433 *  0.713618 *  -0.07025    1.000000    
    756 C912  c    0.182495 *  0.992742 *  0.727260 *  -0.07025    1.000000    
    757 C912  c    0.616425 *  0.432664 *  0.713584 *  -0.07025    1.000000    
    758 C912  c    0.182730 *  0.869682 *  0.727300 *  -0.07025    1.000000    
    759 C912  c    0.421926 *  0.237338 *  0.671500 *  -0.07025    1.000000    
    760 C912  c    0.872073 *  0.682966 *  0.657306 *  -0.07025    1.000000    
    761 C912  c    0.495955 *  0.179162 *  0.657306 *  -0.07025    1.000000    
    762 C912  c    0.946214 *  0.624670 *  0.671473 *  -0.07025    1.000000    
    763 C912  c    0.872011 *  0.179108 *  0.657312 *  -0.07025    1.000000    
    764 C912  c    0.496002 *  0.683005 *  0.657291 *  -0.07025    1.000000    
    765 C912  c    0.946181 *  0.237395 *  0.671476 *  -0.07025    1.000000    
    766 C912  c    0.421863 *  0.624703 *  0.671457 *  -0.07025    1.000000    
    767 C913  c    0.327460 *  0.795818 *  0.664885 *   1.07050    1.000000    
    768 C913  c    0.040599 *  0.066314 *  0.664886 *   1.07050    1.000000    
    769 C913  c    0.327446 *  0.066294 *  0.664893 *   1.07050    1.000000    
    770 C913  c    0.040616 *  0.795776 *  0.664897 *   1.07050    1.000000    
    771 C913  c    0.183680 *  0.930934 *  0.696229 *   1.07050    1.000000    
    772 C914  c    0.683123 *  0.434508 *  0.744654 *   1.07050    1.000000    
    773 C913  c    0.684122 *  0.431619 *  0.694527 *   1.07050    1.000000    
    774 C914  c    0.181700 *  0.931873 *  0.746358 *   1.07050    1.000000    
    775 C913  c    0.540484 *  0.295623 *  0.664036 *   1.07050    1.000000    
    776 C913  c    0.827590 *  0.566464 *  0.664024 *   1.07050    1.000000    
    777 C913  c    0.827536 *  0.295602 *  0.664033 *   1.07050    1.000000    
    778 C913  c    0.540470 *  0.566484 *  0.664004 *   1.07050    1.000000    
    779 C902  c    0.383540 *  0.736117 *  0.664606 *   0.00500    1.000000    
    780 C902  c    0.984509 *  0.126005 *  0.664615 *   0.00500    1.000000    
    781 C902  c    0.383536 *  0.125992 *  0.664624 *   0.00500    1.000000    
    782 C902  c    0.984541 *  0.736074 *  0.664619 *   0.00500    1.000000    
    783 C902  c    0.183262 *  0.931072 *  0.709354 *   0.00500    1.000000    
    784 C902  c    0.683755 *  0.433603 *  0.731533 *   0.00500    1.000000    
    785 C902  c    0.683982 *  0.432251 *  0.707651 *   0.00500    1.000000    
    786 C902  c    0.182340 *  0.931295 *  0.733236 *   0.00500    1.000000    
    787 C902  c    0.484405 *  0.235919 *  0.664319 *   0.00500    1.000000    
    788 C902  c    0.883675 *  0.626158 *  0.664306 *   0.00500    1.000000    
    789 C902  c    0.883626 *  0.235912 *  0.664312 *   0.00500    1.000000    
    790 C902  c    0.484397 *  0.626188 *  0.664288 *   0.00500    1.000000    
    791 H915  c    0.731694 *  0.560124 *  0.374713 *   0.11250    1.000000    
    792 H915  c    0.050574 *  0.923072 *  0.398259 *   0.11250    1.000000    
    793 H915  c    0.730600 *  0.342362 *  0.370746 *   0.11250    1.000000    
    794 H915  c    0.289720 *  0.916019 *  0.395824 *   0.11250    1.000000    
    795 H915  c    0.279836 *  0.904234 *  0.374312 *   0.11250    1.000000    
    796 H915  c    0.718567 *  0.546375 *  0.396078 *   0.11250    1.000000    
    797 H915  c    0.040436 *  0.911696 *  0.376744 *   0.11250    1.000000    
    798 H915  c    0.717447 *  0.329389 *  0.392091 *   0.11250    1.000000    
    799 H915  c    0.328463 *  0.678516 *  0.453244 *   0.11250    1.000000    
    800 H915  c    0.914468 *  0.077284 *  0.429364 *   0.11250    1.000000    
    801 H915  c    0.455620 *  0.780024 *  0.427083 *   0.11250    1.000000    
    802 H915  c    0.048834 *  0.187828 *  0.453558 *   0.11250    1.000000    
    803 H915  c    0.454290 *  0.081759 *  0.426374 *   0.11250    1.000000    
    804 H915  c    0.912528 *  0.785001 *  0.429841 *   0.11250    1.000000    
    805 H915  c    0.329662 *  0.181591 *  0.453006 *   0.11250    1.000000    
    806 H915  c    0.049494 *  0.673948 *  0.453614 *   0.11250    1.000000    
    807 H915  c    0.189305 *  0.040462 *  0.486410 *   0.11250    1.000000    
    808 H915  c    0.563358 *  0.430242 *  0.506481 *   0.11250    1.000000    
    809 H915  c    0.187982 *  0.822013 *  0.486390 *   0.11250    1.000000    
    810 H915  c    0.803007 *  0.430384 *  0.506533 *   0.11250    1.000000    
    811 H915  c    0.803184 *  0.430002 *  0.484883 *   0.11250    1.000000    
    812 H915  c    0.187404 *  0.040391 *  0.508122 *   0.11250    1.000000    
    813 H915  c    0.563531 *  0.429870 *  0.484830 *   0.11250    1.000000    
    814 H915  c    0.186136 *  0.821943 *  0.508102 *   0.11250    1.000000    
    815 H915  c    0.419180 *  0.279567 *  0.452507 *   0.11250    1.000000    
    816 H915  c    0.822010 *  0.687721 *  0.429275 *   0.11250    1.000000    
    817 H915  c    0.543677 *  0.179823 *  0.425845 *   0.11250    1.000000    
    818 H915  c    0.958725 *  0.576794 *  0.453100 *   0.11250    1.000000    
    819 H915  c    0.823831 *  0.174370 *  0.428648 *   0.11250    1.000000    
    820 H915  c    0.544684 *  0.681675 *  0.426513 *   0.11250    1.000000    
    821 H915  c    0.957751 *  0.284702 *  0.452931 *   0.11250    1.000000    
    822 H915  c    0.417676 *  0.580286 *  0.452708 *   0.11250    1.000000    
    823 H915  c    0.820613 *  0.181390 *  0.564765 *   0.11250    1.000000    
    824 H915  c    0.409184 *  0.582341 *  0.539571 *   0.11250    1.000000    
    825 H915  c    0.957973 *  0.279162 *  0.539431 *   0.11250    1.000000    
    826 H915  c    0.547176 *  0.680836 *  0.564742 *   0.11250    1.000000    
    827 H915  c    0.957977 *  0.582671 *  0.539432 *   0.11250    1.000000    
    828 H915  c    0.408969 *  0.279649 *  0.539659 *   0.11250    1.000000    
    829 H915  c    0.820514 *  0.680528 *  0.564743 *   0.11250    1.000000    
    830 H915  c    0.547445 *  0.180893 *  0.564738 *   0.11250    1.000000    
    831 H915  c    0.683913 *  0.540190 *  0.597010 *   0.11250    1.000000    
    832 H915  c    0.063999 *  0.930989 *  0.619908 *   0.11250    1.000000    
    833 H915  c    0.683832 *  0.321777 *  0.597015 *   0.11250    1.000000    
    834 H915  c    0.303696 *  0.930941 *  0.619868 *   0.11250    1.000000    
    835 H915  c    0.303540 *  0.930892 *  0.598203 *   0.11250    1.000000    
    836 H915  c    0.684018 *  0.540206 *  0.618711 *   0.11250    1.000000    
    837 H915  c    0.063838 *  0.930949 *  0.598243 *   0.11250    1.000000    
    838 H915  c    0.683937 *  0.321790 *  0.618715 *   0.11250    1.000000    
    839 H915  c    0.909268 *  0.779137 *  0.565403 *   0.11250    1.000000    
    840 H915  c    0.320050 *  0.181161 *  0.540345 *   0.11250    1.000000    
    841 H915  c    0.046778 *  0.681244 *  0.540103 *   0.11250    1.000000    
    842 H915  c    0.458595 *  0.082349 *  0.565408 *   0.11250    1.000000    
    843 H915  c    0.320257 *  0.680825 *  0.540243 *   0.11250    1.000000    
    844 H915  c    0.046734 *  0.180556 *  0.540094 *   0.11250    1.000000    
    845 H915  c    0.458306 *  0.779364 *  0.565402 *   0.11250    1.000000    
    846 H915  c    0.909331 *  0.082752 *  0.565418 *   0.11250    1.000000    
    847 H915  c    0.322915 *  0.678308 *  0.677225 *   0.11250    1.000000    
    848 H915  c    0.912663 *  0.080160 *  0.651949 *   0.11250    1.000000    
    849 H915  c    0.455342 *  0.781962 *  0.651934 *   0.11250    1.000000    
    850 H915  c    0.045175 *  0.183807 *  0.677231 *   0.11250    1.000000    
    851 H915  c    0.455254 *  0.080256 *  0.651930 *   0.11250    1.000000    
    852 H915  c    0.912734 *  0.781920 *  0.651949 *   0.11250    1.000000    
    853 H915  c    0.323012 *  0.183690 *  0.677270 *   0.11250    1.000000    
    854 H915  c    0.045183 *  0.678267 *  0.677237 *   0.11250    1.000000    
    855 H915  c    0.183054 *  0.040253 *  0.710417 *   0.11250    1.000000    
    856 H915  c    0.563651 *  0.433698 *  0.730355 *   0.11250    1.000000    
    857 H915  c    0.183450 *  0.821950 *  0.710468 *   0.11250    1.000000    
    858 H915  c    0.804040 *  0.433256 *  0.730383 *   0.11250    1.000000    
    859 H915  c    0.803797 *  0.432066 *  0.708763 *   0.11250    1.000000    
    860 H915  c    0.182227 *  0.040678 *  0.732057 *   0.11250    1.000000    
    861 H915  c    0.564106 *  0.432481 *  0.708715 *   0.11250    1.000000    
    862 H915  c    0.182644 *  0.821746 *  0.732088 *   0.11250    1.000000    
    863 H915  c    0.412656 *  0.281668 *  0.677010 *   0.11250    1.000000    
    864 H915  c    0.822999 *  0.683989 *  0.651696 *   0.11250    1.000000    
    865 H915  c    0.544985 *  0.178188 *  0.651686 *   0.11250    1.000000    
    866 H915  c    0.955525 *  0.580285 *  0.676969 *   0.11250    1.000000    
    867 H915  c    0.822921 *  0.178086 *  0.651705 *   0.11250    1.000000    
    868 H915  c    0.545072 *  0.684029 *  0.651680 *   0.11250    1.000000    
    869 H915  c    0.955502 *  0.281771 *  0.676974 *   0.11250    1.000000    
    870 H915  c    0.412553 *  0.580317 *  0.676953 *   0.11250    1.000000    
    871 Zn172 c    0.188462 *  0.845527 *  0.451376 *   2.00000    1.000000    
    872 Zn172 c    0.089024 *  0.930934 *  0.432675 *   2.00000    1.000000    
    873 Zn172 c    0.277843 *  0.930101 *  0.431332 *   2.00000    1.000000    
    874 Zn172 c    0.188816 *  0.016214 *  0.451307 *   2.00000    1.000000    
    875 Zn172 c    0.779994 *  0.429986 *  0.449366 *   2.00000    1.000000    
    876 Zn172 c    0.688098 *  0.515647 *  0.429741 *   2.00000    1.000000    
    877 Zn172 c    0.592363 *  0.429662 *  0.448958 *   2.00000    1.000000    
    878 Zn172 c    0.688134 *  0.346100 *  0.429174 *   2.00000    1.000000    
    879 Zn172 c    0.683849 *  0.346409 *  0.561749 *   2.00000    1.000000    
    880 Zn172 c    0.589088 *  0.430891 *  0.542175 *   2.00000    1.000000    
    881 Zn172 c    0.778057 *  0.430911 *  0.542121 *   2.00000    1.000000    
    882 Zn172 c    0.683795 *  0.515461 *  0.561742 *   2.00000    1.000000    
    883 Zn172 c    0.278357 *  0.930884 *  0.562747 *   2.00000    1.000000    
    884 Zn172 c    0.183841 *  0.015634 *  0.543241 *   2.00000    1.000000    
    885 Zn172 c    0.089056 *  0.930924 *  0.562732 *   2.00000    1.000000    
    886 Zn172 c    0.183737 *  0.846326 *  0.543221 *   2.00000    1.000000    
    887 Zn172 c    0.184051 *  0.846228 *  0.675025 *   2.00000    1.000000    
    888 Zn172 c    0.089854 *  0.931041 *  0.655420 *   2.00000    1.000000    
    889 Zn172 c    0.278148 *  0.931063 *  0.655409 *   2.00000    1.000000    
    890 Zn172 c    0.184012 *  0.015891 *  0.675023 *   2.00000    1.000000    
    891 Zn172 c    0.778347 *  0.431043 *  0.673421 *   2.00000    1.000000    
    892 Zn172 c    0.684047 *  0.516072 *  0.653928 *   2.00000    1.000000    
    893 Zn172 c    0.589668 *  0.431088 *  0.673418 *   2.00000    1.000000    
    894 Zn172 c    0.684006 *  0.345999 *  0.653935 *   2.00000    1.000000    
--------------------------------------------------------------------------------



  Molecule list generated from bond lengths :

  Total number of molecules =    22

--------------------------------------------------------------------------------
Molecule No./:  Atoms
Periodicity  :  
--------------------------------------------------------------------------------
     1  0    : O3   c   184 H22  c   185
     2  0    : O3   c   195 H22  c   196
     3  0    : O176 c   543 O176 c   545 O177 c   548 O177 c   550 C912 c   631
             : C912 c   633 C912 c   636 C912 c   638 C916 c   639 C917 c   642
             : C902 c   643 C902 c   646 H915 c   791 H915 c   793 H915 c   796
             : H915 c   798
     4  0    : O177 c   544 O177 c   546 O176 c   547 O176 c   549 C912 c   632
             : C912 c   634 C912 c   635 C912 c   637 C917 c   640 C916 c   641
             : C902 c   644 C902 c   645 H915 c   792 H915 c   794 H915 c   795
             : H915 c   797
     5  0    : O170 c   553 O170 c   555 O170 c   574 O170 c   576 C912 c   647
             : C912 c   649 C912 c   668 C912 c   670 C913 c   671 C913 c   682
             : C902 c   683 C902 c   694 H915 c   799 H915 c   801 H915 c   820
             : H915 c   822
     6  0    : O170 c   554 O170 c   556 O170 c   573 O170 c   575 C912 c   648
             : C912 c   650 C912 c   667 C912 c   669 C913 c   672 C913 c   681
             : C902 c   684 C902 c   693 H915 c   800 H915 c   802 H915 c   819
             : H915 c   821
     7  0    : O170 c   557 O170 c   559 O170 c   569 O170 c   571 C912 c   651
             : C912 c   653 C912 c   663 C912 c   665 C913 c   673 C913 c   679
             : C902 c   685 C902 c   691 H915 c   803 H915 c   805 H915 c   815
             : H915 c   817
     8  0    : O170 c   558 O170 c   560 O170 c   570 O170 c   572 C912 c   652
             : C912 c   654 C912 c   664 C912 c   666 C913 c   674 C913 c   680
             : C902 c   686 C902 c   692 H915 c   804 H915 c   806 H915 c   816
             : H915 c   818
     9  0    : O170 c   561 O170 c   563 O170 c   566 O170 c   568 C912 c   655
             : C912 c   657 C912 c   660 C912 c   662 C913 c   675 C913 c   678
             : C902 c   687 C902 c   690 H915 c   807 H915 c   809 H915 c   812
             : H915 c   814
    10  0    : O170 c   562 O170 c   564 O170 c   565 O170 c   567 C912 c   656
             : C912 c   658 C912 c   659 C912 c   661 C913 c   676 C913 c   677
             : C902 c   688 C902 c   689 H915 c   808 H915 c   810 H915 c   811
             : H915 c   813
    11  0    : O170 c   579 O170 c   581 O170 c   600 O170 c   602 C912 c   695
             : C912 c   697 C912 c   716 C912 c   718 C913 c   719 C913 c   730
             : C902 c   731 C902 c   742 H915 c   823 H915 c   825 H915 c   844
             : H915 c   846
    12  0    : O170 c   580 O170 c   582 O170 c   599 O170 c   601 C912 c   696
             : C912 c   698 C912 c   715 C912 c   717 C913 c   720 C913 c   729
             : C902 c   732 C902 c   741 H915 c   824 H915 c   826 H915 c   843
             : H915 c   845
    13  0    : O170 c   583 O170 c   585 O170 c   595 O170 c   597 C912 c   699
             : C912 c   701 C912 c   711 C912 c   713 C913 c   721 C913 c   727
             : C902 c   733 C902 c   739 H915 c   827 H915 c   829 H915 c   839
             : H915 c   841
    14  0    : O170 c   584 O170 c   586 O170 c   596 O170 c   598 C912 c   700
             : C912 c   702 C912 c   712 C912 c   714 C913 c   722 C913 c   728
             : C902 c   734 C902 c   740 H915 c   828 H915 c   830 H915 c   840
             : H915 c   842
    15  0    : O170 c   587 O170 c   589 O170 c   592 O170 c   594 C912 c   703
             : C912 c   705 C912 c   708 C912 c   710 C913 c   723 C913 c   726
             : C902 c   735 C902 c   738 H915 c   831 H915 c   833 H915 c   836
             : H915 c   838
    16  0    : O170 c   588 O170 c   590 O170 c   591 O170 c   593 C912 c   704
             : C912 c   706 C912 c   707 C912 c   709 C913 c   724 C913 c   725
             : C902 c   736 C902 c   737 H915 c   832 H915 c   834 H915 c   835
             : H915 c   837
    17  0    : O170 c   605 O170 c   607 O170 c   628 O170 c   630 C912 c   743
             : C912 c   745 C912 c   764 C912 c   766 C913 c   767 C913 c   778
             : C902 c   779 C902 c   790 H915 c   847 H915 c   849 H915 c   868
             : H915 c   870
    18  0    : O170 c   606 O170 c   608 O170 c   627 O170 c   629 C912 c   744
             : C912 c   746 C912 c   763 C912 c   765 C913 c   768 C913 c   777
             : C902 c   780 C902 c   789 H915 c   848 H915 c   850 H915 c   867
             : H915 c   869
    19  0    : O170 c   609 O170 c   611 O170 c   623 O170 c   625 C912 c   747
             : C912 c   749 C912 c   759 C912 c   761 C913 c   769 C913 c   775
             : C902 c   781 C902 c   787 H915 c   851 H915 c   853 H915 c   863
             : H915 c   865
    20  0    : O170 c   610 O170 c   612 O170 c   624 O170 c   626 C912 c   748
             : C912 c   750 C912 c   760 C912 c   762 C913 c   770 C913 c   776
             : C902 c   782 C902 c   788 H915 c   852 H915 c   854 H915 c   864
             : H915 c   866
    21  0    : O170 c   613 O170 c   615 O173 c   619 O172 c   621 H21  c   622
             : C912 c   751 C912 c   753 C912 c   756 C912 c   758 C913 c   771
             : C914 c   774 C902 c   783 C902 c   786 H915 c   855 H915 c   857
             : H915 c   860 H915 c   862
[...]
   640 C917  c    -17.513486          -0.373141   -0.522809   -6.863787
   641 C916  c    -16.534207           0.338280    0.692230    6.137977
   642 C917  c    -17.352167           0.757448    0.332379   -7.012093
   643 C902  c      2.461095           0.575689    0.379897   -4.261966
   644 C902  c      1.222605           0.315014    0.201770    3.698997
   645 C902  c      1.448466          -0.200468   -0.640678   -3.917762
   646 C902  c      1.513833          -0.325077   -0.298189    3.453898
   647 C912  c      1.061910          -1.046136    0.427691    0.542354
   648 C912  c      1.025897           0.274204   -1.179369   -0.442307
   649 C912  c      1.098995          -0.282138    1.173622   -0.521007
   650 C912  c      1.043169           1.090369   -0.402179    0.530021
   651 C912  c      1.051963          -0.289562   -1.175478   -0.516055
   652 C912  c      1.087014           0.271555    1.176364   -0.467205
   653 C912  c      1.026371          -1.037402   -0.438285    0.560301
   654 C912  c      1.078508           1.089873    0.397556    0.509744
   655 C912  c      1.052353           0.016495    0.693107   -1.050876
   656 C912  c      1.074253          -0.733244    0.002253    1.046885
   657 C912  c      1.052140           0.008977   -0.691843   -1.050308
   658 C912  c      1.071156           0.725723    0.004828    1.049811
   659 C912  c      1.073296           0.729666   -0.000589   -1.049771
   660 C912  c      1.053824          -0.011331    0.692110    1.053459
   661 C912  c      1.078264          -0.730243   -0.003266   -1.055719
   662 C912  c      1.054582          -0.018378   -0.693179    1.053292
   663 C912  c      1.066263           0.293290    1.176314    0.525721
   664 C912  c      1.074357          -1.074548   -0.422839   -0.523649
   665 C912  c      1.029426           1.053182    0.454281   -0.552459
   666 C912  c      1.109511          -0.261726   -1.205214    0.458133
   667 C912  c      1.019688          -1.085237    0.428165   -0.508804
   668 C912  c      1.073690           1.046817   -0.445837   -0.558036
   669 C912  c      1.068366          -0.269373    1.198903    0.467757
   670 C912  c      1.105261           0.280064   -1.189789    0.507099
   671 C913  c    -17.516075           4.707663   -5.348403   -0.400368
   672 C913  c    -17.534224          -4.678766    5.343662   -0.309832
   673 C913  c    -17.526267           4.718622    5.316370   -0.439631
   674 C913  c    -17.514533          -4.701625   -5.345335   -0.280078
   675 C913  c    -17.474001          -0.075592    0.008085    6.880850
   676 C913  c    -17.473968          -0.001294   -0.021928   -6.992177
   677 C913  c    -17.470380          -0.048200    0.017025    7.009247
   678 C913  c    -17.475471           0.110436    0.003189   -6.897836
   679 C913  c    -17.492183          -4.638048   -5.379811    0.269083
   680 C913  c    -17.475633           4.710759    5.310565    0.411356
   681 C913  c    -17.496877           4.681018   -5.322358    0.362428
   682 C913  c    -17.470437          -4.665599    5.358833    0.358193
   683 C902  c      1.197171          -2.270101    2.714360    0.077024
   684 C902  c      1.166026           2.323484   -2.704682    0.115315
   685 C902  c      1.161839          -2.273502   -2.722279    0.096792
   686 C902  c      1.207235           2.317531    2.695217    0.076091
   687 C902  c      1.261209           0.036923   -0.000402   -3.739542
   688 C902  c      1.228477          -0.004952    0.011311    3.624598
   689 C902  c      1.233752           0.010128   -0.007370   -3.627304
   690 C902  c      1.264718          -0.056758   -0.002641    3.741665
   691 C902  c      1.178879           2.284732    2.730045   -0.055742
   692 C902  c      1.224486          -2.296091   -2.725941   -0.127384
   693 C902  c      1.185066          -2.316168    2.726806   -0.114817
   694 C902  c      1.215184           2.269126   -2.733190   -0.081477
   695 C912  c      1.033635          -1.057882    0.446142    0.472512
   696 C912  c      1.090765           0.250489   -1.187616   -0.560880
   697 C912  c      1.090619          -0.251115    1.186925   -0.563918
   698 C912  c      1.034706           1.061553   -0.443177    0.468825
   699 C912  c      1.091204          -0.251023   -1.187081   -0.563780
   700 C912  c      1.089615           0.249198    1.188766   -0.558949
   701 C912  c      1.034184          -1.058667   -0.445595    0.471711
   702 C912  c      1.034187           1.062939    0.442177    0.466583
   703 C912  c      1.062707          -0.000602    0.700609   -1.051997
   704 C912  c      1.060773          -0.718655    0.000398    1.050535
   705 C912  c      1.062564          -0.000961   -0.700727   -1.051788
   706 C912  c      1.061042           0.721081    0.000097    1.049947
   707 C912  c      1.060826           0.718286   -0.000606   -1.051153
   708 C912  c      1.063417           0.000983    0.700504    1.052943
   709 C912  c      1.061933          -0.721448   -0.000232   -1.050793
   710 C912  c      1.063344           0.000627   -0.700211    1.053160
   711 C912  c      1.090028           0.251049    1.186436    0.562983
   712 C912  c      1.033390          -1.062090   -0.441976   -0.466249
   713 C912  c      1.035004           1.059298    0.445227   -0.471892
   714 C912  c      1.089712          -0.248317   -1.189110    0.558536
   715 C912  c      1.035102          -1.061444    0.443005   -0.469289
   716 C912  c      1.034515           1.058717   -0.445991   -0.472474
   717 C912  c      1.089932          -0.250048    1.187518    0.559873
   718 C912  c      1.089711           0.251283   -1.186380    0.563310
   719 C913  c    -17.510041           4.755841   -5.289064   -0.085168
   720 C913  c    -17.509390          -4.761670    5.282921   -0.073613
   721 C913  c    -17.509310           4.757851    5.287223   -0.082613
   722 C913  c    -17.509984          -4.761576   -5.282225   -0.067894
   723 C913  c    -17.474466           0.005422    0.001186    6.928963
   724 C913  c    -17.484704          -0.004106   -0.002604   -6.973125
   725 C913  c    -17.475461           0.000947    0.002142    6.958586
   726 C913  c    -17.463336          -0.005005   -0.001011   -6.912610
   727 C913  c    -17.509945          -4.754704   -5.292423    0.080339
   728 C913  c    -17.512136           4.763776    5.283809    0.079908
   729 C913  c    -17.511125           4.760497   -5.287110    0.078790
   730 C913  c    -17.509849          -4.752452    5.293911    0.082580
   731 C902  c      1.187625          -2.256549    2.749456   -0.120536
   732 C902  c      1.188560           2.261176   -2.746485   -0.122652
   733 C902  c      1.188143          -2.257361   -2.748578   -0.121413
   734 C902  c      1.188039           2.261371    2.747091   -0.124604
   735 C902  c      1.260745          -0.002715   -0.000384   -3.715772
   736 C902  c      1.230609           0.004123    0.001206    3.653850
   737 C902  c      1.231783          -0.004041   -0.001112   -3.654935
   738 C902  c      1.263028           0.002561    0.000475    3.718424
   739 C902  c      1.187971           2.257547    2.748522    0.120459
   740 C902  c      1.187502          -2.259493   -2.748468    0.120358
   741 C902  c      1.188205          -2.259902    2.747416    0.119355
   742 C902  c      1.187819           2.257045   -2.749505    0.119815
   743 C912  c      1.040488          -1.064675    0.432764    0.517124
   744 C912  c      1.077329           0.269161   -1.186697   -0.512760
   745 C912  c      1.078361          -0.269196    1.186746   -0.512052
   746 C912  c      1.038238           1.064203   -0.432259    0.515425
   747 C912  c      1.074958          -0.269990   -1.186370   -0.514868
   748 C912  c      1.080884           0.269207    1.186286   -0.511087
   749 C912  c      1.033722          -1.064247   -0.433625    0.514853
   750 C912  c      1.045677           1.063931    0.432063    0.519029
   751 C912  c      1.208066           0.001880    0.643773   -0.961435
   752 C912  c      1.415687          -0.525167    0.017988    1.283302
   753 C912  c      1.260335           0.003763   -0.683170   -0.924603
   754 C912  c      1.548711           0.613202    0.016871    1.379050
   755 C912  c      1.257232           0.682799   -0.006202   -0.920664
   756 C912  c      1.413780          -0.012042    0.524685    1.281608
   757 C912  c      1.206101          -0.644489   -0.004104   -0.957191
   758 C912  c      1.548154          -0.010868   -0.613590    1.377552
   759 C912  c      1.069040           0.271793    1.187041    0.507286
   760 C912  c      1.046861          -1.065189   -0.431801   -0.518807
   761 C912  c      1.040645           1.064905    0.432603   -0.521747
   762 C912  c      1.080871          -0.270615   -1.186545    0.510809
   763 C912  c      1.043198          -1.065617    0.431960   -0.519581
   764 C912  c      1.044264           1.065521   -0.431705   -0.520109
   765 C912  c      1.074293          -0.271116    1.187608    0.508515
   766 C912  c      1.074866           0.270599   -1.186471    0.507996
   767 C913  c    -17.509338           4.704000   -5.324599   -0.277412
   768 C913  c    -17.510775          -4.706031    5.322978   -0.273420
   769 C913  c    -17.511759           4.704641    5.323467   -0.272509
   770 C913  c    -17.507967          -4.704324   -5.325341   -0.276569
   771 C913  c    -17.429183          -0.034896    0.010574    6.973325
   772 C914  c    -14.309783           0.588000   -0.052742   -4.514898
   773 C913  c    -17.441653          -0.009843    0.057478    6.964971
   774 C914  c    -14.312722           0.034449   -0.588412   -4.515258
   775 C913  c    -17.509797          -4.706082   -5.324021    0.282266
   776 C913  c    -17.506262           4.706840    5.325746    0.279397
   777 C913  c    -17.507805           4.707379   -5.323371    0.278849
   778 C913  c    -17.508581          -4.704897    5.326703    0.280669
   779 C902  c      1.186954          -2.286084    2.731463    0.031670
   780 C902  c      1.185488           2.286378   -2.731541    0.028889
   781 C902  c      1.182520          -2.286768   -2.731811    0.027340
   782 C902  c      1.190222           2.285509    2.731024    0.032640
   783 C902  c      1.375698           0.015799   -0.020808   -3.602359
   784 C902  c      2.112180           0.085575    0.054325    4.377672
   785 C902  c      1.369356           0.019985   -0.026443   -3.595583
   786 C902  c      2.110092          -0.035467   -0.086074    4.377011
   787 C902  c      1.183785           2.286897    2.732899   -0.036158
   788 C902  c      1.191525          -2.286669   -2.731272   -0.033141
   789 C902  c      1.187316          -2.287285    2.732365   -0.033868
   790 C902  c      1.187704           2.286728   -2.731764   -0.035552
   791 H915  c     -1.361534           0.004437    0.232045    0.193844
   792 H915  c     -2.018594          -0.552155   -0.062582   -0.245380
   793 H915  c     -0.921232          -0.039265   -0.009861   -0.508317
   794 H915  c     -1.885485           0.511621   -0.112990   -0.309934
   795 H915  c     -1.642854           0.634904   -0.221099    0.031250
   796 H915  c     -1.727746           0.064281    0.511404   -0.382263
   797 H915  c     -1.827058          -0.488615   -0.127620    0.067350
   798 H915  c     -1.619209           0.037119   -0.376609   -0.301534
   799 H915  c     -1.890228          -0.107200   -0.480206    0.373130
   800 H915  c     -1.900234          -0.409495   -0.115789   -0.327537
   801 H915  c     -1.793066           0.364330    0.109356   -0.376755
   802 H915  c     -1.883385           0.139875    0.465001    0.351460
   803 H915  c     -1.840060           0.350183   -0.126221   -0.358823
   804 H915  c     -1.831375          -0.410681    0.102653   -0.350570
   805 H915  c     -1.922726          -0.099553    0.477912    0.387791
   806 H915  c     -1.858382           0.137089   -0.471476    0.342975
   807 H915  c     -1.913083           0.001874    0.544890    0.277149
   808 H915  c     -1.859378          -0.535070   -0.001306   -0.236124
   809 H915  c     -1.914914          -0.004394   -0.547534    0.281985
   810 H915  c     -1.866449           0.536198    0.000538   -0.239968
   811 H915  c     -1.863249           0.536412    0.002291    0.241804
   812 H915  c     -1.910853           0.008117    0.546558   -0.277106
   813 H915  c     -1.850789          -0.535463    0.000347    0.226198
   814 H915  c     -1.910011           0.002804   -0.546743   -0.278405
   815 H915  c     -1.823197          -0.384625    0.111013    0.381922
   816 H915  c     -1.871032          -0.123628    0.467147   -0.353217
   817 H915  c     -1.908154           0.125447   -0.415716   -0.363502
   818 H915  c     -1.783371           0.399202   -0.135591    0.346170
   819 H915  c     -1.926727          -0.140982   -0.440090   -0.321332
   820 H915  c     -1.866068           0.113288    0.448599   -0.383048
   821 H915  c     -1.825933           0.410712    0.127203    0.358393
   822 H915  c     -1.780895          -0.376693   -0.125423    0.367029
   823 H915  c     -1.930441          -0.116982   -0.494709    0.392055
   824 H915  c     -1.779780          -0.375177   -0.132641   -0.350649
   825 H915  c     -1.778907           0.372438    0.132246   -0.352812
   826 H915  c     -1.928721           0.118785    0.494957    0.389537
   827 H915  c     -1.778249           0.372733   -0.132443   -0.352577
   828 H915  c     -1.781187          -0.376362    0.133347   -0.348958
   829 H915  c     -1.929737          -0.117356    0.494656    0.391606
   830 H915  c     -1.929179           0.119833   -0.495772    0.388591
   831 H915  c     -1.895955           0.000373    0.543755    0.269586
   832 H915  c     -1.882650          -0.538455   -0.000162   -0.248173
   833 H915  c     -1.896229           0.000093   -0.543663    0.269824
   834 H915  c     -1.881645           0.537343   -0.000370   -0.247516
   835 H915  c     -1.882455           0.538183   -0.000198    0.246829
   836 H915  c     -1.894952           0.000048    0.543067   -0.267917
   837 H915  c     -1.879737          -0.537113    0.000127    0.245050
   838 H915  c     -1.895033          -0.000234   -0.542988   -0.267621
   839 H915  c     -1.780574          -0.373155    0.131303    0.352160
   840 H915  c     -1.931309          -0.118605    0.498133   -0.388295
   841 H915  c     -1.928445           0.117686   -0.494345   -0.391166
   842 H915  c     -1.780776           0.375279   -0.133447    0.349255
   843 H915  c     -1.928403          -0.118326   -0.495688   -0.389696
   844 H915  c     -1.929055           0.117585    0.494049   -0.391220
   845 H915  c     -1.781203           0.374900    0.132043    0.350558
   846 H915  c     -1.780810          -0.372834   -0.131126    0.352572
   847 H915  c     -1.906338          -0.123815   -0.469544    0.368927
   848 H915  c     -1.809776          -0.387566   -0.123221   -0.362292
   849 H915  c     -1.809011           0.387300    0.123038   -0.362314
   850 H915  c     -1.910426           0.122468    0.469592    0.367120
   851 H915  c     -1.811421           0.386915   -0.123044   -0.363543
   852 H915  c     -1.807377          -0.387498    0.122580   -0.361744
   853 H915  c     -1.914921          -0.123889    0.467578    0.365787
   854 H915  c     -1.900873           0.121977   -0.470643    0.371242
   855 H915  c     -1.830409          -0.004340    0.489168    0.292232
   856 H915  c     -1.665196          -0.247585    0.002456   -0.165023
   857 H915  c     -1.776472          -0.003108   -0.503769    0.333494
   858 H915  c     -1.389998           0.268531    0.004082    0.039870
   859 H915  c     -1.781851           0.503813    0.004681    0.336934
   860 H915  c     -1.668466          -0.002228    0.246783   -0.166190
   861 H915  c     -1.834069          -0.490128    0.006074    0.296502
   862 H915  c     -1.390865          -0.003166   -0.269151    0.038433
   863 H915  c     -1.821665          -0.381266    0.124770    0.355255
   864 H915  c     -1.898836          -0.122788    0.472633   -0.371476
   865 H915  c     -1.903609           0.122823   -0.472625   -0.373614
   866 H915  c     -1.807831           0.383907   -0.122372    0.361454
   867 H915  c     -1.901702          -0.123089   -0.472718   -0.372368
   868 H915  c     -1.900440           0.123349    0.472655   -0.371974
   869 H915  c     -1.814789           0.382686    0.124826    0.358160
   870 H915  c     -1.815876          -0.383548   -0.122505    0.357615
   871 Zn172 c    -20.911578          -0.014055   -0.371479   -0.008059
   872 Zn172 c    -20.817336          -0.519184   -0.002125    0.308566
   873 Zn172 c    -20.647716           0.547207    0.048998    0.142233
   874 Zn172 c    -20.910727          -0.024545    0.372014   -0.002294
   875 Zn172 c    -20.626850           0.381053    0.015767   -0.050949
   876 Zn172 c    -20.831663          -0.059256    0.374077   -0.197947
   877 Zn172 c    -20.599957          -0.471587    0.009876   -0.019630
   878 Zn172 c    -20.730355          -0.053323   -0.147559   -0.261953
   879 Zn172 c    -20.968055          -0.000985   -0.236867    0.082355
   880 Zn172 c    -20.560132          -0.512952    0.002927    0.064831
   881 Zn172 c    -20.558886           0.528216    0.001803    0.067755
   882 Zn172 c    -20.967439          -0.001618    0.239007    0.082996
   883 Zn172 c    -20.581640           0.543174    0.000632   -0.126750
   884 Zn172 c    -20.988913          -0.013706    0.268687   -0.037205
   885 Zn172 c    -20.579764          -0.548193   -0.000132   -0.117670
   886 Zn172 c    -20.986215          -0.008541   -0.271517   -0.039044
   887 Zn172 c    -20.883109           0.001538   -0.274440    0.125473
   888 Zn172 c    -20.643523          -0.476907    0.000844    0.100144
   889 Zn172 c    -20.641591           0.475794    0.001385    0.096530
   890 Zn172 c    -20.889389           0.002856    0.280998    0.115288
   891 Zn172 c    -20.657406           0.505323   -0.003137   -0.139461
   892 Zn172 c    -20.905218          -0.000489    0.307626   -0.054615
   893 Zn172 c    -20.661944          -0.512123   -0.005479   -0.148922
   894 Zn172 c    -20.906346          -0.000191   -0.307160   -0.056005
-------------------------------------------------------------------------------

  Total time to end of lattice properties =    1737.2272 s


  Peak dynamic memory used =     148.21 MB 


  Timing analysis for GULP :

--------------------------------------------------------------------------------
  Task / Subroutine                                          Time (Seconds)
--------------------------------------------------------------------------------
  Calculation of reciprocal space energy and derivatives        450.9183
  Calculation of real space energy and derivatives             1085.2185
  Calculation of three-body energy and derivatives                3.2226
  Calculation of four-body energy and derivatives                 3.5624
  Calculation of molecules and connectivity                       0.2824
  Calculation of phonons                                         32.2646
  Calculation of scattering                                       0.0000
  Calculation of matrix inversion                               164.3541
  Symmetry generation of equivalent positions                     0.0089
  Global summation overhead                                       0.0049
--------------------------------------------------------------------------------
  Total CPU time                                               1737.2273
--------------------------------------------------------------------------------


  Dump file written as fit1.res                                                


  Job Finished at 00:20.37 26th May        2016                               

