********************************************************************************
*                       GENERAL UTILITY LATTICE PROGRAM                        *
*                                 Julian Gale                                  *
*                      Nanochemistry Research Institute                        *
*                           Department of Chemistry                            *
*                    Curtin University, Western Australia                      *
********************************************************************************
* Version = 4.4.0 * Last modified = 31st March 2015                            *
********************************************************************************
*  optimise     - perform optimisation run                                     *
*  conv         - constant volume calculation                                  *
*  property     - calculate properties for final geometry                      *
*  phonon       - calculate phonons for final geometry                         *
*  potential    - calculate electrostatic site potentials                      *
*  molmec       - molecule option activated, Coulomb subtract 1-2/1-3 terms    *
*  fix_molecule - fix atoms of molecule as at the start of the run             *
*  compare      - compare initial and final structures                         *
********************************************************************************

  Job Started  at 07:24.03 18th May        2016                               

  Number of CPUs =     1


  Total number of configurations input =   1

********************************************************************************
*  Input for Configuration =   1                                               *
********************************************************************************

  Formula = Ti180O446H84C160Zn24                                        

  Number of irreducible atoms/shells =     894


  Total number atoms/shells =     894

  Dimensionality = 3               :  Bulk   



  Cartesian lattice vectors (Angstroms) :

       17.724000    0.000000    0.000000
        0.000000   19.461000    0.000000
        0.000000    0.000000  114.868482

  Cell parameters (Angstroms/Degrees):

  a =      17.7240    alpha =  90.0000
  b =      19.4610    beta  =  90.0000
  c =     114.8685    gamma =  90.0000

  Initial cell volume =       39621.213782 Angs**3

  Temperature of configuration =  0.000     K 

  Pressure of configuration =         0.000 GPa 

  Fractional coordinates of asymmetric unit :

--------------------------------------------------------------------------------
   No.  Atomic       x           y          z         Charge      Occupancy
        Label      (Frac)      (Frac)     (Frac)        (e)         (Frac)  
--------------------------------------------------------------------------------
      1 Ti    c    0.320000    0.733333    0.339268     2.43600    1.000000    
      2 Ti    c    0.148216 *  0.399264 *  0.341482 *   2.43600    1.000000    
      3 Ti    c    0.981625 *  0.399651 *  0.341562 *   2.43600    1.000000    
      4 Ti    c    0.816442 *  0.399918 *  0.340241 *   2.43600    1.000000    
      5 Ti    c    0.647440 *  0.399719 *  0.340090 *   2.43600    1.000000    
      6 Ti    c    0.482479 *  0.399873 *  0.341527 *   2.43600    1.000000    
      7 Ti    c    0.315680 *  0.399244 *  0.341445 *   2.43600    1.000000    
      8 Ti    c    0.148516 *  0.065750 *  0.340954 *   2.43600    1.000000    
      9 Ti    c    0.982129 *  0.066064 *  0.341395 *   2.43600    1.000000    
     10 Ti    c    0.815732 *  0.065955 *  0.341356 *   2.43600    1.000000    
     11 Ti    c    0.648701 *  0.065377 *  0.341383 *   2.43600    1.000000    
     12 Ti    c    0.481992 *  0.066197 *  0.341397 *   2.43600    1.000000    
     13 Ti    c    0.315292 *  0.065839 *  0.341365 *   2.43600    1.000000    
     14 Ti    c    0.143855 *  0.733334 *  0.338762 *   2.43600    1.000000    
     15 Ti    c    0.981376 *  0.733241 *  0.341601 *   2.43600    1.000000    
     16 Ti    c    0.815563 *  0.731858 *  0.341574 *   2.43600    1.000000    
     17 Ti    c    0.649021 *  0.731996 *  0.341524 *   2.43600    1.000000    
     18 Ti    c    0.482965 *  0.732681 *  0.341538 *   2.43600    1.000000    
     19 Ti    c    0.064975 *  0.232228 *  0.339317 *   2.43600    1.000000    
     20 Ti    c    0.898313 *  0.233160 *  0.339792 *   2.43600    1.000000    
     21 Ti    c    0.732250 *  0.230578 *  0.339031 *   2.43600    1.000000    
     22 Ti    c    0.899705 *  0.899309 *  0.339337 *   2.43600    1.000000    
     23 Ti    c    0.565142 *  0.898977 *  0.339284 *   2.43600    1.000000    
     24 Ti    c    0.397946 *  0.899515 *  0.339203 *   2.43600    1.000000    
     25 Ti    c    0.898508 *  0.566562 *  0.339054 *   2.43600    1.000000    
     26 Ti    c    0.565538 *  0.566588 *  0.338982 *   2.43600    1.000000    
     27 Ti    c    0.398956 *  0.566737 *  0.339147 *   2.43600    1.000000    
     28 Ti    c    0.232023 *  0.231964 *  0.339231 *   2.43600    1.000000    
     29 Ti    c    0.565618 *  0.233393 *  0.339201 *   2.43600    1.000000    
     30 Ti    c    0.398877 *  0.232844 *  0.339292 *   2.43600    1.000000    
     31 Ti    c    0.231368 *  0.900873 *  0.340507 *   2.43600    1.000000    
     32 Ti    c    0.066424 *  0.899842 *  0.340959 *   2.43600    1.000000    
     33 Ti    c    0.732451 *  0.898208 *  0.339303 *   2.43600    1.000000    
     34 Ti    c    0.232155 *  0.563780 *  0.338839 *   2.43600    1.000000    
     35 Ti    c    0.065175 *  0.567211 *  0.339153 *   2.43600    1.000000    
     36 Ti    c    0.731972 *  0.565074 *  0.340673 *   2.43600    1.000000    
     37 Ti    c    0.315522 *  0.565967 *  0.311845 *   2.43600    1.000000    
     38 Ti    c    0.148685 *  0.232775 *  0.312124 *   2.43600    1.000000    
     39 Ti    c    0.981873 *  0.232718 *  0.312311 *   2.43600    1.000000    
     40 Ti    c    0.815572 *  0.232502 *  0.312200 *   2.43600    1.000000    
     41 Ti    c    0.648634 *  0.232537 *  0.311931 *   2.43600    1.000000    
     42 Ti    c    0.482013 *  0.232710 *  0.312042 *   2.43600    1.000000    
     43 Ti    c    0.315437 *  0.232846 *  0.312082 *   2.43600    1.000000    
     44 Ti    c    0.148564 *  0.899643 *  0.313507 *   2.43600    1.000000    
     45 Ti    c    0.982264 *  0.899396 *  0.312651 *   2.43600    1.000000    
     46 Ti    c    0.815388 *  0.899123 *  0.312142 *   2.43600    1.000000    
     47 Ti    c    0.648812 *  0.899106 *  0.312135 *   2.43600    1.000000    
     48 Ti    c    0.482319 *  0.899418 *  0.312022 *   2.43600    1.000000    
     49 Ti    c    0.315275 *  0.899635 *  0.312498 *   2.43600    1.000000    
     50 Ti    c    0.148620 *  0.566037 *  0.311888 *   2.43600    1.000000    
     51 Ti    c    0.982042 *  0.566124 *  0.311871 *   2.43600    1.000000    
     52 Ti    c    0.814975 *  0.565750 *  0.312623 *   2.43600    1.000000    
     53 Ti    c    0.649095 *  0.565751 *  0.312585 *   2.43600    1.000000    
     54 Ti    c    0.482012 *  0.566139 *  0.311826 *   2.43600    1.000000    
     55 Ti    c    0.400402 *  0.732773 *  0.312243 *   2.43600    1.000000    
     56 Ti    c    0.232048 *  0.399366 *  0.312860 *   2.43600    1.000000    
     57 Ti    c    0.065567 *  0.399186 *  0.312907 *   2.43600    1.000000    
     58 Ti    c    0.899468 *  0.399034 *  0.312641 *   2.43600    1.000000    
     59 Ti    c    0.732092 *  0.399020 *  0.312596 *   2.43600    1.000000    
     60 Ti    c    0.564556 *  0.399059 *  0.312560 *   2.43600    1.000000    
     61 Ti    c    0.398542 *  0.399219 *  0.312865 *   2.43600    1.000000    
     62 Ti    c    0.232201 *  0.066238 *  0.312851 *   2.43600    1.000000    
     63 Ti    c    0.065252 *  0.066179 *  0.312874 *   2.43600    1.000000    
     64 Ti    c    0.898711 *  0.065770 *  0.312913 *   2.43600    1.000000    
     65 Ti    c    0.732032 *  0.065798 *  0.312866 *   2.43600    1.000000    
     66 Ti    c    0.565404 *  0.065828 *  0.312865 *   2.43600    1.000000    
     67 Ti    c    0.398803 *  0.066285 *  0.312874 *   2.43600    1.000000    
     68 Ti    c    0.232226 *  0.732849 *  0.312344 *   2.43600    1.000000    
     69 Ti    c    0.063516 *  0.732925 *  0.312209 *   2.43600    1.000000    
     70 Ti    c    0.898184 *  0.732402 *  0.312941 *   2.43600    1.000000    
     71 Ti    c    0.732069 *  0.732373 *  0.312993 *   2.43600    1.000000    
     72 Ti    c    0.565921 *  0.732409 *  0.312881 *   2.43600    1.000000    
     73 Ti    c    0.315385 *  0.732733 *  0.284658 *   2.43600    1.000000    
     74 Ti    c    0.148733 *  0.399335 *  0.285027 *   2.43600    1.000000    
     75 Ti    c    0.982172 *  0.399301 *  0.285000 *   2.43600    1.000000    
     76 Ti    c    0.815409 *  0.399262 *  0.284871 *   2.43600    1.000000    
     77 Ti    c    0.648735 *  0.399262 *  0.284841 *   2.43600    1.000000    
     78 Ti    c    0.481909 *  0.399311 *  0.284934 *   2.43600    1.000000    
     79 Ti    c    0.315346 *  0.399351 *  0.285001 *   2.43600    1.000000    
     80 Ti    c    0.148707 *  0.065975 *  0.285125 *   2.43600    1.000000    
     81 Ti    c    0.982053 *  0.065912 *  0.285149 *   2.43600    1.000000    
     82 Ti    c    0.815403 *  0.065913 *  0.285100 *   2.43600    1.000000    
     83 Ti    c    0.648735 *  0.065952 *  0.285054 *   2.43600    1.000000    
     84 Ti    c    0.482079 *  0.065930 *  0.285067 *   2.43600    1.000000    
     85 Ti    c    0.315398 *  0.065966 *  0.285115 *   2.43600    1.000000    
     86 Ti    c    0.148706 *  0.732733 *  0.284646 *   2.43600    1.000000    
     87 Ti    c    0.981674 *  0.732618 *  0.284943 *   2.43600    1.000000    
     88 Ti    c    0.815238 *  0.732606 *  0.285116 *   2.43600    1.000000    
     89 Ti    c    0.648876 *  0.732569 *  0.285070 *   2.43600    1.000000    
     90 Ti    c    0.482426 *  0.732609 *  0.284881 *   2.43600    1.000000    
     91 Ti    c    0.398842 *  0.565994 *  0.284864 *   2.43600    1.000000    
     92 Ti    c    0.231998 *  0.232645 *  0.285058 *   2.43600    1.000000    
     93 Ti    c    0.065300 *  0.232592 *  0.285125 *   2.43600    1.000000    
     94 Ti    c    0.898813 *  0.232625 *  0.285131 *   2.43600    1.000000    
     95 Ti    c    0.732214 *  0.232613 *  0.285017 *   2.43600    1.000000    
     96 Ti    c    0.565326 *  0.232644 *  0.284976 *   2.43600    1.000000    
     97 Ti    c    0.398657 *  0.232631 *  0.285025 *   2.43600    1.000000    
     98 Ti    c    0.231584 *  0.899347 *  0.285525 *   2.43600    1.000000    
     99 Ti    c    0.065755 *  0.899256 *  0.285586 *   2.43600    1.000000    
    100 Ti    c    0.899088 *  0.899285 *  0.285266 *   2.43600    1.000000    
    101 Ti    c    0.732171 *  0.899265 *  0.285098 *   2.43600    1.000000    
    102 Ti    c    0.565448 *  0.899276 *  0.285057 *   2.43600    1.000000    
    103 Ti    c    0.398401 *  0.899257 *  0.285156 *   2.43600    1.000000    
    104 Ti    c    0.232026 *  0.566038 *  0.284854 *   2.43600    1.000000    
    105 Ti    c    0.065245 *  0.566011 *  0.284897 *   2.43600    1.000000    
    106 Ti    c    0.898259 *  0.565850 *  0.285109 *   2.43600    1.000000    
    107 Ti    c    0.732072 *  0.565841 *  0.285280 *   2.43600    1.000000    
    108 Ti    c    0.565851 *  0.565847 *  0.285071 *   2.43600    1.000000    
    109 Ti    c    0.315427 *  0.565975 *  0.257824 *   2.43600    1.000000    
    110 Ti    c    0.148688 *  0.232636 *  0.258039 *   2.43600    1.000000    
    111 Ti    c    0.982059 *  0.232624 *  0.258061 *   2.43600    1.000000    
    112 Ti    c    0.815451 *  0.232605 *  0.258014 *   2.43600    1.000000    
    113 Ti    c    0.648742 *  0.232601 *  0.257950 *   2.43600    1.000000    
    114 Ti    c    0.482026 *  0.232618 *  0.257958 *   2.43600    1.000000    
    115 Ti    c    0.315362 *  0.232628 *  0.257995 *   2.43600    1.000000    
    116 Ti    c    0.148696 *  0.899285 *  0.258363 *   2.43600    1.000000    
    117 Ti    c    0.982233 *  0.899283 *  0.258279 *   2.43600    1.000000    
    118 Ti    c    0.815524 *  0.899302 *  0.258116 *   2.43600    1.000000    
    119 Ti    c    0.648758 *  0.899306 *  0.258032 *   2.43600    1.000000    
    120 Ti    c    0.481971 *  0.899288 *  0.258044 *   2.43600    1.000000    
    121 Ti    c    0.315195 *  0.899288 *  0.258197 *   2.43600    1.000000    
    122 Ti    c    0.148674 *  0.565967 *  0.257843 *   2.43600    1.000000    
    123 Ti    c    0.981903 *  0.565957 *  0.257944 *   2.43600    1.000000    
    124 Ti    c    0.815284 *  0.565936 *  0.258087 *   2.43600    1.000000    
    125 Ti    c    0.648830 *  0.565938 *  0.258067 *   2.43600    1.000000    
    126 Ti    c    0.482197 *  0.565962 *  0.257908 *   2.43600    1.000000    
    127 Ti    c    0.398887 *  0.732649 *  0.257052 *   2.43600    1.000000    
    128 Ti    c    0.232033 *  0.399285 *  0.257183 *   2.43600    1.000000    
    129 Ti    c    0.065407 *  0.399297 *  0.257190 *   2.43600    1.000000    
    130 Ti    c    0.898790 *  0.399289 *  0.257161 *   2.43600    1.000000    
    131 Ti    c    0.732078 *  0.399250 *  0.257119 *   2.43600    1.000000    
    132 Ti    c    0.565341 *  0.399282 *  0.257120 *   2.43600    1.000000    
    133 Ti    c    0.398672 *  0.399299 *  0.257151 *   2.43600    1.000000    
    134 Ti    c    0.232024 *  0.065952 *  0.257320 *   2.43600    1.000000    
    135 Ti    c    0.065396 *  0.065951 *  0.257338 *   2.43600    1.000000    
    136 Ti    c    0.898784 *  0.065916 *  0.257311 *   2.43600    1.000000    
    137 Ti    c    0.732103 *  0.065936 *  0.257264 *   2.43600    1.000000    
    138 Ti    c    0.565376 *  0.065932 *  0.257246 *   2.43600    1.000000    
    139 Ti    c    0.398670 *  0.065928 *  0.257275 *   2.43600    1.000000    
    140 Ti    c    0.232035 *  0.732643 *  0.257005 *   2.43600    1.000000    
    141 Ti    c    0.065177 *  0.732627 *  0.257097 *   2.43600    1.000000    
    142 Ti    c    0.898576 *  0.732643 *  0.257222 *   2.43600    1.000000    
    143 Ti    c    0.732091 *  0.732650 *  0.257260 *   2.43600    1.000000    
    144 Ti    c    0.565563 *  0.732635 *  0.257172 *   2.43600    1.000000    
    145 Ti    c    0.398820 *  0.565985 *  0.230702 *   2.43600    1.000000    
    146 Ti    c    0.315387 *  0.732740 *  0.228517 *   2.43600    1.000000    
    147 Ti    c    0.232007 *  0.232571 *  0.230847 *   2.43600    1.000000    
    148 Ti    c    0.148691 *  0.399261 *  0.228645 *   2.43600    1.000000    
    149 Ti    c    0.065376 *  0.232565 *  0.230878 *   2.43600    1.000000    
    150 Ti    c    0.982047 *  0.399268 *  0.228640 *   2.43600    1.000000    
    151 Ti    c    0.898775 *  0.232583 *  0.230864 *   2.43600    1.000000    
    152 Ti    c    0.815409 *  0.399267 *  0.228609 *   2.43600    1.000000    
    153 Ti    c    0.732117 *  0.232584 *  0.230811 *   2.43600    1.000000    
    154 Ti    c    0.648751 *  0.399267 *  0.228591 *   2.43600    1.000000    
    155 Ti    c    0.565385 *  0.232576 *  0.230786 *   2.43600    1.000000    
    156 Ti    c    0.482064 *  0.399271 *  0.228602 *   2.43600    1.000000    
    157 Ti    c    0.398676 *  0.232579 *  0.230809 *   2.43600    1.000000    
    158 Ti    c    0.315366 *  0.399264 *  0.228627 *   2.43600    1.000000    
    159 Ti    c    0.231919 *  0.899298 *  0.231056 *   2.43600    1.000000    
    160 Ti    c    0.148696 *  0.065876 *  0.228800 *   2.43600    1.000000    
    161 Ti    c    0.065444 *  0.899306 *  0.231100 *   2.43600    1.000000    
    162 Ti    c    0.982101 *  0.065879 *  0.228793 *   2.43600    1.000000    
    163 Ti    c    0.898880 *  0.899314 *  0.231004 *   2.43600    1.000000    
    164 Ti    c    0.815462 *  0.065888 *  0.228750 *   2.43600    1.000000    
    165 Ti    c    0.732161 *  0.899300 *  0.230899 *   2.43600    1.000000    
    166 Ti    c    0.648754 *  0.065897 *  0.228715 *   2.43600    1.000000    
    167 Ti    c    0.565374 *  0.899310 *  0.230863 *   2.43600    1.000000    
    168 Ti    c    0.482016 *  0.065886 *  0.228724 *   2.43600    1.000000    
    169 Ti    c    0.398577 *  0.899312 *  0.230925 *   2.43600    1.000000    
    170 Ti    c    0.315319 *  0.065876 *  0.228768 *   2.43600    1.000000    
    171 Ti    c    0.232033 *  0.566000 *  0.230675 *   2.43600    1.000000    
    172 Ti    c    0.148644 *  0.732742 *  0.228539 *   2.43600    1.000000    
    173 Ti    c    0.065267 *  0.566000 *  0.230732 *   2.43600    1.000000    
    174 Ti    c    0.981980 *  0.732729 *  0.228644 *   2.43600    1.000000    
    175 Ti    c    0.898593 *  0.565978 *  0.230839 *   2.43600    1.000000    
    176 Ti    c    0.815391 *  0.732715 *  0.228714 *   2.43600    1.000000    
    177 Ti    c    0.732076 *  0.565981 *  0.230887 *   2.43600    1.000000    
    178 Ti    c    0.648800 *  0.732705 *  0.228686 *   2.43600    1.000000    
    179 Ti    c    0.565534 *  0.565987 *  0.230807 *   2.43600    1.000000    
    180 Ti    c    0.482131 *  0.732719 *  0.228592 *   2.43600    1.000000    
    181 O2    c    0.394470 *  0.729813 *  0.349571 *  -1.21800    1.000000    
    182 O3    c    0.232132 *  0.403214 *  0.350126 *  -0.33800    1.000000    
    183 H22   c    0.232132 *  0.403214 *  0.360126 *   0.12000    1.000000    
    184 O2    c    0.064979 *  0.400987 *  0.350298 *  -1.21800    1.000000    
    185 O2    c    0.894993 *  0.401222 *  0.349973 *  -1.21800    1.000000    
    186 O2    c    0.886916 *  0.223178 *  0.356164 *  -1.21800    1.000000    
    187 O2    c    0.569201 *  0.400133 *  0.349970 *  -1.21800    1.000000    
    188 O2    c    0.399240 *  0.400236 *  0.350260 *  -1.21800    1.000000    
    189 O2    c    0.231425 *  0.067365 *  0.349925 *  -1.21800    1.000000    
    190 O2    c    0.066129 *  0.068941 *  0.349958 *  -1.21800    1.000000    
    191 O2    c    0.898517 *  0.067751 *  0.350172 *  -1.21800    1.000000    
    192 O2    c    0.732014 *  0.068429 *  0.350093 *  -1.21800    1.000000    
    193 O2    c    0.565420 *  0.066066 *  0.350144 *  -1.21800    1.000000    
    194 O2    c    0.398832 *  0.067821 *  0.350143 *  -1.21800    1.000000    
    195 O3    c    0.231436 *  0.733032 *  0.349883 *  -0.33800    1.000000    
    196 H22   c    0.227515 *  0.745469 *  0.358019 *   0.12000    1.000000    
    197 O2    c    0.071077 *  0.728354 *  0.349315 *  -1.21800    1.000000    
    198 O2    c    0.898985 *  0.731028 *  0.350425 *  -1.21800    1.000000    
    199 O2    c    0.732044 *  0.733301 *  0.350277 *  -1.21800    1.000000    
    200 O2    c    0.565196 *  0.733173 *  0.350345 *  -1.21800    1.000000    
    201 O2    c    0.148911 *  0.172858 *  0.340466 *  -1.21800    1.000000    
    202 O2    c    0.981973 *  0.172513 *  0.340435 *  -1.21800    1.000000    
    203 O2    c    0.814436 *  0.171978 *  0.340198 *  -1.21800    1.000000    
    204 O2    c    0.647858 *  0.172888 *  0.340636 *  -1.21800    1.000000    
    205 O2    c    0.482724 *  0.172910 *  0.340648 *  -1.21800    1.000000    
    206 O2    c    0.316145 *  0.172900 *  0.340698 *  -1.21800    1.000000    
    207 O2    c    0.151251 *  0.830989 *  0.338765 *  -1.21800    1.000000    
    208 O2    c    0.980403 *  0.836137 *  0.340698 *  -1.21800    1.000000    
    209 O2    c    0.815852 *  0.838136 *  0.340844 *  -1.21800    1.000000    
    210 O2    c    0.648098 *  0.838250 *  0.340753 *  -1.21800    1.000000    
    211 O2    c    0.480992 *  0.837727 *  0.340904 *  -1.21800    1.000000    
    212 O2    c    0.317286 *  0.833637 *  0.340134 *  -1.21800    1.000000    
    213 O2    c    0.982318 *  0.505621 *  0.340690 *  -1.21800    1.000000    
    214 O2    c    0.481950 *  0.505541 *  0.340739 *  -1.21800    1.000000    
    215 O2    c    0.316435 *  0.506614 *  0.340626 *  -1.21800    1.000000    
    216 O2    c    0.148008 *  0.506862 *  0.340652 *  -1.21800    1.000000    
    217 O2    c    0.819526 *  0.501617 *  0.339120 *  -1.21800    1.000000    
    218 O2    c    0.643606 *  0.501312 *  0.339072 *  -1.21800    1.000000    
    219 O2    c    0.312894 *  0.629009 *  0.340563 *  -1.21800    1.000000    
    220 O2    c    0.149127 *  0.294047 *  0.340892 *  -1.21800    1.000000    
    221 O2    c    0.982427 *  0.294753 *  0.340847 *  -1.21800    1.000000    
    222 O2    c    0.811496 *  0.295990 *  0.340769 *  -1.21800    1.000000    
    223 O2    c    0.650777 *  0.295107 *  0.340914 *  -1.21800    1.000000    
    224 O2    c    0.482605 *  0.294123 *  0.340971 *  -1.21800    1.000000    
    225 O2    c    0.315262 *  0.294119 *  0.340829 *  -1.21800    1.000000    
    226 O2    c    0.979634 *  0.961493 *  0.340587 *  -1.21800    1.000000    
    227 O2    c    0.482240 *  0.959591 *  0.340771 *  -1.21800    1.000000    
    228 O2    c    0.318463 *  0.960995 *  0.340406 *  -1.21800    1.000000    
    229 O2    c    0.152300 *  0.629029 *  0.340301 *  -1.21800    1.000000    
    230 O2    c    0.982569 *  0.626853 *  0.340812 *  -1.21800    1.000000    
    231 O2    c    0.816643 *  0.626672 *  0.340736 *  -1.21800    1.000000    
    232 O2    c    0.646679 *  0.626925 *  0.340735 *  -1.21800    1.000000    
    233 O2    c    0.481329 *  0.627160 *  0.340793 *  -1.21800    1.000000    
    234 O2    c    0.149198 *  0.964084 *  0.338960 *  -1.21800    1.000000    
    235 O2    c    0.814701 *  0.959813 *  0.340836 *  -1.21800    1.000000    
    236 O2    c    0.648877 *  0.959548 *  0.340795 *  -1.21800    1.000000    
    237 O2    c    0.402358 *  0.731279 *  0.328883 *  -1.21800    1.000000    
    238 O2    c    0.232290 *  0.400571 *  0.329527 *  -1.21800    1.000000    
    239 O2    c    0.065879 *  0.399743 *  0.329560 *  -1.21800    1.000000    
    240 O2    c    0.900386 *  0.397110 *  0.329247 *  -1.21800    1.000000    
    241 O2    c    0.731726 *  0.396255 *  0.329725 *  -1.21800    1.000000    
    242 O2    c    0.563284 *  0.396324 *  0.329223 *  -1.21800    1.000000    
    243 O2    c    0.398800 *  0.399519 *  0.329560 *  -1.21800    1.000000    
    244 O2    c    0.234039 *  0.069279 *  0.329287 *  -1.21800    1.000000    
    245 O2    c    0.064213 *  0.068971 *  0.329282 *  -1.21800    1.000000    
    246 O2    c    0.897621 *  0.065556 *  0.329433 *  -1.21800    1.000000    
    247 O2    c    0.731152 *  0.065888 *  0.329457 *  -1.21800    1.000000    
    248 O2    c    0.565465 *  0.065761 *  0.329480 *  -1.21800    1.000000    
    249 O2    c    0.399909 *  0.066707 *  0.329446 *  -1.21800    1.000000    
    250 O2    c    0.233550 *  0.729243 *  0.329978 *  -1.21800    1.000000    
    251 O2    c    0.060763 *  0.728970 *  0.328691 *  -1.21800    1.000000    
    252 O2    c    0.898052 *  0.731656 *  0.329581 *  -1.21800    1.000000    
    253 O2    c    0.731724 *  0.733250 *  0.329600 *  -1.21800    1.000000    
    254 O2    c    0.565005 *  0.732371 *  0.329576 *  -1.21800    1.000000    
    255 O2    c    0.398190 *  0.567047 *  0.322893 *  -1.21800    1.000000    
    256 O2    c    0.232524 *  0.233552 *  0.322963 *  -1.21800    1.000000    
    257 O2    c    0.065774 *  0.233860 *  0.323011 *  -1.21800    1.000000    
    258 O2    c    0.898010 *  0.234293 *  0.323223 *  -1.21800    1.000000    
    259 O2    c    0.730981 *  0.233103 *  0.322869 *  -1.21800    1.000000    
    260 O2    c    0.565710 *  0.233952 *  0.322963 *  -1.21800    1.000000    
    261 O2    c    0.399164 *  0.233610 *  0.323007 *  -1.21800    1.000000    
    262 O2    c    0.235475 *  0.898866 *  0.323504 *  -1.21800    1.000000    
    263 O2    c    0.062782 *  0.898209 *  0.323687 *  -1.21800    1.000000    
    264 O2    c    0.896992 *  0.898987 *  0.323069 *  -1.21800    1.000000    
    265 O2    c    0.731664 *  0.898941 *  0.323024 *  -1.21800    1.000000    
    266 O2    c    0.565212 *  0.898932 *  0.323010 *  -1.21800    1.000000    
    267 O2    c    0.400553 *  0.898400 *  0.322973 *  -1.21800    1.000000    
    268 O2    c    0.232455 *  0.565757 *  0.322730 *  -1.21800    1.000000    
    269 O2    c    0.066100 *  0.566953 *  0.322880 *  -1.21800    1.000000    
    270 O2    c    0.901052 *  0.567189 *  0.322845 *  -1.21800    1.000000    
    271 O2    c    0.731712 *  0.566425 *  0.323521 *  -1.21800    1.000000    
    272 O2    c    0.562753 *  0.567248 *  0.322817 *  -1.21800    1.000000    
    273 O2    c    0.315392 *  0.667727 *  0.312574 *  -1.21800    1.000000    
    274 O2    c    0.315530 *  0.465160 *  0.312517 *  -1.21800    1.000000    
    275 O2    c    0.149073 *  0.334269 *  0.312570 *  -1.21800    1.000000    
    276 O2    c    0.148890 *  0.132048 *  0.312428 *  -1.21800    1.000000    
    277 O2    c    0.982514 *  0.333971 *  0.312391 *  -1.21800    1.000000    
    278 O2    c    0.981355 *  0.132043 *  0.312467 *  -1.21800    1.000000    
    279 O2    c    0.815034 *  0.334116 *  0.312557 *  -1.21800    1.000000    
    280 O2    c    0.815037 *  0.131701 *  0.312552 *  -1.21800    1.000000    
    281 O2    c    0.648646 *  0.334121 *  0.312512 *  -1.21800    1.000000    
    282 O2    c    0.648498 *  0.131677 *  0.312519 *  -1.21800    1.000000    
    283 O2    c    0.481554 *  0.333825 *  0.312334 *  -1.21800    1.000000    
    284 O2    c    0.482491 *  0.131915 *  0.312540 *  -1.21800    1.000000    
    285 O2    c    0.315441 *  0.334230 *  0.312577 *  -1.21800    1.000000    
    286 O2    c    0.316076 *  0.132151 *  0.312411 *  -1.21800    1.000000    
    287 O2    c    0.148985 *  0.000965 *  0.312744 *  -1.21800    1.000000    
    288 O2    c    0.149094 *  0.796204 *  0.313057 *  -1.21800    1.000000    
    289 O2    c    0.981993 *  0.000685 *  0.312538 *  -1.21800    1.000000    
    290 O2    c    0.981053 *  0.797823 *  0.312314 *  -1.21800    1.000000    
    291 O2    c    0.814889 *  0.000467 *  0.312506 *  -1.21800    1.000000    
    292 O2    c    0.814975 *  0.797818 *  0.312540 *  -1.21800    1.000000    
    293 O2    c    0.648506 *  0.000355 *  0.312546 *  -1.21800    1.000000    
    294 O2    c    0.648593 *  0.797941 *  0.312570 *  -1.21800    1.000000    
    295 O2    c    0.482119 *  0.000513 *  0.312486 *  -1.21800    1.000000    
    296 O2    c    0.482854 *  0.798042 *  0.312257 *  -1.21800    1.000000    
    297 O2    c    0.315978 *  0.000783 *  0.312525 *  -1.21800    1.000000    
    298 O2    c    0.315670 *  0.796547 *  0.312803 *  -1.21800    1.000000    
    299 O2    c    0.149366 *  0.667784 *  0.312618 *  -1.21800    1.000000    
    300 O2    c    0.148928 *  0.465205 *  0.312517 *  -1.21800    1.000000    
    301 O2    c    0.981499 *  0.666782 *  0.311958 *  -1.21800    1.000000    
    302 O2    c    0.982549 *  0.464933 *  0.312432 *  -1.21800    1.000000    
    303 O2    c    0.815023 *  0.666889 *  0.312633 *  -1.21800    1.000000    
    304 O2    c    0.815112 *  0.463859 *  0.312785 *  -1.21800    1.000000    
    305 O2    c    0.648650 *  0.666991 *  0.312656 *  -1.21800    1.000000    
    306 O2    c    0.648601 *  0.463786 *  0.312799 *  -1.21800    1.000000    
    307 O2    c    0.482331 *  0.667013 *  0.312106 *  -1.21800    1.000000    
    308 O2    c    0.481583 *  0.464933 *  0.312445 *  -1.21800    1.000000    
    309 O2    c    0.398513 *  0.566373 *  0.301448 *  -1.21800    1.000000    
    310 O2    c    0.232102 *  0.233228 *  0.301600 *  -1.21800    1.000000    
    311 O2    c    0.065197 *  0.232921 *  0.301661 *  -1.21800    1.000000    
    312 O2    c    0.898627 *  0.233137 *  0.301714 *  -1.21800    1.000000    
    313 O2    c    0.732302 *  0.233067 *  0.301572 *  -1.21800    1.000000    
    314 O2    c    0.565295 *  0.232983 *  0.301546 *  -1.21800    1.000000    
    315 O2    c    0.398724 *  0.232916 *  0.301582 *  -1.21800    1.000000    
    316 O2    c    0.231015 *  0.897940 *  0.302156 *  -1.21800    1.000000    
    317 O2    c    0.066784 *  0.898366 *  0.302216 *  -1.21800    1.000000    
    318 O2    c    0.899271 *  0.899509 *  0.301773 *  -1.21800    1.000000    
    319 O2    c    0.731978 *  0.899233 *  0.301636 *  -1.21800    1.000000    
    320 O2    c    0.565637 *  0.899479 *  0.301598 *  -1.21800    1.000000    
    321 O2    c    0.397947 *  0.898461 *  0.301708 *  -1.21800    1.000000    
    322 O2    c    0.232093 *  0.566856 *  0.301441 *  -1.21800    1.000000    
    323 O2    c    0.065760 *  0.566387 *  0.301463 *  -1.21800    1.000000    
    324 O2    c    0.897377 *  0.564788 *  0.301637 *  -1.21800    1.000000    
    325 O2    c    0.731950 *  0.564848 *  0.301932 *  -1.21800    1.000000    
    326 O2    c    0.566563 *  0.564968 *  0.301618 *  -1.21800    1.000000    
    327 O2    c    0.398160 *  0.732517 *  0.295561 *  -1.21800    1.000000    
    328 O2    c    0.232199 *  0.399701 *  0.295848 *  -1.21800    1.000000    
    329 O2    c    0.065560 *  0.399597 *  0.295841 *  -1.21800    1.000000    
    330 O2    c    0.898407 *  0.399378 *  0.295761 *  -1.21800    1.000000    
    331 O2    c    0.731908 *  0.399379 *  0.295735 *  -1.21800    1.000000    
    332 O2    c    0.565525 *  0.399385 *  0.295718 *  -1.21800    1.000000    
    333 O2    c    0.398699 *  0.399588 *  0.295812 *  -1.21800    1.000000    
    334 O2    c    0.232220 *  0.066165 *  0.295881 *  -1.21800    1.000000    
    335 O2    c    0.065439 *  0.066229 *  0.295895 *  -1.21800    1.000000    
    336 O2    c    0.898456 *  0.066127 *  0.295890 *  -1.21800    1.000000    
    337 O2    c    0.731807 *  0.066125 *  0.295867 *  -1.21800    1.000000    
    338 O2    c    0.565426 *  0.066090 *  0.295859 *  -1.21800    1.000000    
    339 O2    c    0.399030 *  0.066242 *  0.295865 *  -1.21800    1.000000    
    340 O2    c    0.232145 *  0.732426 *  0.295602 *  -1.21800    1.000000    
    341 O2    c    0.066282 *  0.732527 *  0.295569 *  -1.21800    1.000000    
    342 O2    c    0.898578 *  0.732420 *  0.295817 *  -1.21800    1.000000    
    343 O2    c    0.731816 *  0.732369 *  0.295915 *  -1.21800    1.000000    
    344 O2    c    0.565321 *  0.732470 *  0.295796 *  -1.21800    1.000000    
    345 O2    c    0.315394 *  0.501361 *  0.284987 *  -1.21800    1.000000    
    346 O2    c    0.315451 *  0.630862 *  0.284875 *  -1.21800    1.000000    
    347 O2    c    0.148769 *  0.167997 *  0.285077 *  -1.21800    1.000000    
    348 O2    c    0.148726 *  0.297624 *  0.285059 *  -1.21800    1.000000    
    349 O2    c    0.981949 *  0.167920 *  0.285080 *  -1.21800    1.000000    
    350 O2    c    0.982039 *  0.297620 *  0.285037 *  -1.21800    1.000000    
    351 O2    c    0.815399 *  0.167913 *  0.285068 *  -1.21800    1.000000    
    352 O2    c    0.815417 *  0.297559 *  0.285008 *  -1.21800    1.000000    
    353 O2    c    0.648686 *  0.167983 *  0.285062 *  -1.21800    1.000000    
    354 O2    c    0.648687 *  0.297485 *  0.285012 *  -1.21800    1.000000    
    355 O2    c    0.482076 *  0.167933 *  0.285028 *  -1.21800    1.000000    
    356 O2    c    0.482010 *  0.297571 *  0.284987 *  -1.21800    1.000000    
    357 O2    c    0.315439 *  0.167967 *  0.285046 *  -1.21800    1.000000    
    358 O2    c    0.315423 *  0.297630 *  0.285030 *  -1.21800    1.000000    
    359 O2    c    0.148856 *  0.834035 *  0.285084 *  -1.21800    1.000000    
    360 O2    c    0.148789 *  0.964194 *  0.285251 *  -1.21800    1.000000    
    361 O2    c    0.982420 *  0.834307 *  0.285195 *  -1.21800    1.000000    
    362 O2    c    0.982478 *  0.964021 *  0.285280 *  -1.21800    1.000000    
    363 O2    c    0.815471 *  0.834481 *  0.285152 *  -1.21800    1.000000    
    364 O2    c    0.815426 *  0.964066 *  0.285133 *  -1.21800    1.000000    
    365 O2    c    0.648690 *  0.834427 *  0.285063 *  -1.21800    1.000000    
    366 O2    c    0.648721 *  0.964126 *  0.285044 *  -1.21800    1.000000    
    367 O2    c    0.481940 *  0.834400 *  0.285063 *  -1.21800    1.000000    
    368 O2    c    0.481894 *  0.963945 *  0.285146 *  -1.21800    1.000000    
    369 O2    c    0.315064 *  0.834262 *  0.285124 *  -1.21800    1.000000    
    370 O2    c    0.315131 *  0.963949 *  0.285289 *  -1.21800    1.000000    
    371 O2    c    0.148816 *  0.501341 *  0.284987 *  -1.21800    1.000000    
    372 O2    c    0.148801 *  0.630850 *  0.284870 *  -1.21800    1.000000    
    373 O2    c    0.982035 *  0.501221 *  0.285054 *  -1.21800    1.000000    
    374 O2    c    0.981844 *  0.630592 *  0.285032 *  -1.21800    1.000000    
    375 O2    c    0.815072 *  0.500842 *  0.284986 *  -1.21800    1.000000    
    376 O2    c    0.815071 *  0.630669 *  0.285097 *  -1.21800    1.000000    
    377 O2    c    0.648898 *  0.500850 *  0.284986 *  -1.21800    1.000000    
    378 O2    c    0.648895 *  0.630670 *  0.285087 *  -1.21800    1.000000    
    379 O2    c    0.482079 *  0.501230 *  0.285034 *  -1.21800    1.000000    
    380 O2    c    0.482238 *  0.630627 *  0.285019 *  -1.21800    1.000000    
    381 O2    c    0.399114 *  0.732541 *  0.274042 *  -1.21800    1.000000    
    382 O2    c    0.232056 *  0.399510 *  0.274208 *  -1.21800    1.000000    
    383 O2    c    0.065494 *  0.399558 *  0.274206 *  -1.21800    1.000000    
    384 O2    c    0.898943 *  0.399371 *  0.274158 *  -1.21800    1.000000    
    385 O2    c    0.732038 *  0.398935 *  0.274111 *  -1.21800    1.000000    
    386 O2    c    0.565180 *  0.399261 *  0.274126 *  -1.21800    1.000000    
    387 O2    c    0.398599 *  0.399549 *  0.274175 *  -1.21800    1.000000    
    388 O2    c    0.232129 *  0.066047 *  0.274302 *  -1.21800    1.000000    
    389 O2    c    0.065376 *  0.066113 *  0.274313 *  -1.21800    1.000000    
    390 O2    c    0.898789 *  0.065830 *  0.274300 *  -1.21800    1.000000    
    391 O2    c    0.732079 *  0.066047 *  0.274264 *  -1.21800    1.000000    
    392 O2    c    0.565330 *  0.065952 *  0.274254 *  -1.21800    1.000000    
    393 O2    c    0.398666 *  0.065762 *  0.274278 *  -1.21800    1.000000    
    394 O2    c    0.232151 *  0.732324 *  0.273988 *  -1.21800    1.000000    
    395 O2    c    0.064899 *  0.732188 *  0.274060 *  -1.21800    1.000000    
    396 O2    c    0.898402 *  0.732578 *  0.274215 *  -1.21800    1.000000    
    397 O2    c    0.732081 *  0.732778 *  0.274266 *  -1.21800    1.000000    
    398 O2    c    0.565672 *  0.732569 *  0.274178 *  -1.21800    1.000000    
    399 O2    c    0.398666 *  0.565981 *  0.268362 *  -1.21800    1.000000    
    400 O2    c    0.232140 *  0.232796 *  0.268503 *  -1.21800    1.000000    
    401 O2    c    0.065429 *  0.232761 *  0.268542 *  -1.21800    1.000000    
    402 O2    c    0.898639 *  0.232733 *  0.268535 *  -1.21800    1.000000    
    403 O2    c    0.731935 *  0.232706 *  0.268472 *  -1.21800    1.000000    
    404 O2    c    0.565400 *  0.232728 *  0.268444 *  -1.21800    1.000000    
    405 O2    c    0.398782 *  0.232745 *  0.268471 *  -1.21800    1.000000    
    406 O2    c    0.232317 *  0.899224 *  0.268785 *  -1.21800    1.000000    
    407 O2    c    0.065347 *  0.899193 *  0.268824 *  -1.21800    1.000000    
    408 O2    c    0.898617 *  0.899221 *  0.268673 *  -1.21800    1.000000    
    409 O2    c    0.731969 *  0.899218 *  0.268547 *  -1.21800    1.000000    
    410 O2    c    0.565319 *  0.899233 *  0.268517 *  -1.21800    1.000000    
    411 O2    c    0.398817 *  0.899197 *  0.268598 *  -1.21800    1.000000    
    412 O2    c    0.232129 *  0.565991 *  0.268335 *  -1.21800    1.000000    
    413 O2    c    0.065499 *  0.565957 *  0.268384 *  -1.21800    1.000000    
    414 O2    c    0.898865 *  0.565907 *  0.268518 *  -1.21800    1.000000    
    415 O2    c    0.731979 *  0.565927 *  0.268593 *  -1.21800    1.000000    
    416 O2    c    0.565174 *  0.565911 *  0.268492 *  -1.21800    1.000000    
    417 O2    c    0.315484 *  0.667112 *  0.257402 *  -1.21800    1.000000    
    418 O2    c    0.315379 *  0.464880 *  0.257467 *  -1.21800    1.000000    
    419 O2    c    0.148753 *  0.333840 *  0.257550 *  -1.21800    1.000000    
    420 O2    c    0.148757 *  0.131543 *  0.257622 *  -1.21800    1.000000    
    421 O2    c    0.982116 *  0.333811 *  0.257538 *  -1.21800    1.000000    
    422 O2    c    0.982046 *  0.131535 *  0.257620 *  -1.21800    1.000000    
    423 O2    c    0.815422 *  0.333778 *  0.257507 *  -1.21800    1.000000    
    424 O2    c    0.815398 *  0.131509 *  0.257599 *  -1.21800    1.000000    
    425 O2    c    0.648649 *  0.333768 *  0.257481 *  -1.21800    1.000000    
    426 O2    c    0.648692 *  0.131502 *  0.257572 *  -1.21800    1.000000    
    427 O2    c    0.481986 *  0.333803 *  0.257494 *  -1.21800    1.000000    
    428 O2    c    0.482029 *  0.131495 *  0.257580 *  -1.21800    1.000000    
    429 O2    c    0.315397 *  0.333836 *  0.257529 *  -1.21800    1.000000    
    430 O2    c    0.315427 *  0.131523 *  0.257599 *  -1.21800    1.000000    
    431 O2    c    0.148765 *  0.000412 *  0.257722 *  -1.21800    1.000000    
    432 O2    c    0.148698 *  0.798000 *  0.257602 *  -1.21800    1.000000    
    433 O2    c    0.982122 *  0.000408 *  0.257694 *  -1.21800    1.000000    
    434 O2    c    0.981961 *  0.798097 *  0.257595 *  -1.21800    1.000000    
    435 O2    c    0.815394 *  0.000437 *  0.257632 *  -1.21800    1.000000    
    436 O2    c    0.815346 *  0.798166 *  0.257575 *  -1.21800    1.000000    
    437 O2    c    0.648692 *  0.000452 *  0.257595 *  -1.21800    1.000000    
    438 O2    c    0.648735 *  0.798161 *  0.257540 *  -1.21800    1.000000    
    439 O2    c    0.482012 *  0.000410 *  0.257603 *  -1.21800    1.000000    
    440 O2    c    0.482153 *  0.798114 *  0.257508 *  -1.21800    1.000000    
    441 O2    c    0.315374 *  0.000389 *  0.257659 *  -1.21800    1.000000    
    442 O2    c    0.315443 *  0.798036 *  0.257539 *  -1.21800    1.000000    
    443 O2    c    0.148707 *  0.667096 *  0.257415 *  -1.21800    1.000000    
    444 O2    c    0.148775 *  0.464880 *  0.257478 *  -1.21800    1.000000    
    445 O2    c    0.981892 *  0.667028 *  0.257478 *  -1.21800    1.000000    
    446 O2    c    0.982108 *  0.464849 *  0.257500 *  -1.21800    1.000000    
    447 O2    c    0.815305 *  0.667040 *  0.257571 *  -1.21800    1.000000    
    448 O2    c    0.815369 *  0.464756 *  0.257540 *  -1.21800    1.000000    
    449 O2    c    0.648764 *  0.667055 *  0.257561 *  -1.21800    1.000000    
    450 O2    c    0.648683 *  0.464750 *  0.257530 *  -1.21800    1.000000    
    451 O2    c    0.482174 *  0.667073 *  0.257468 *  -1.21800    1.000000    
    452 O2    c    0.482004 *  0.464836 *  0.257482 *  -1.21800    1.000000    
    453 O2    c    0.398908 *  0.566014 *  0.246992 *  -1.21800    1.000000    
    454 O2    c    0.232013 *  0.232698 *  0.247129 *  -1.21800    1.000000    
    455 O2    c    0.065385 *  0.232687 *  0.247158 *  -1.21800    1.000000    
    456 O2    c    0.898796 *  0.232664 *  0.247146 *  -1.21800    1.000000    
    457 O2    c    0.732130 *  0.232628 *  0.247097 *  -1.21800    1.000000    
    458 O2    c    0.565346 *  0.232606 *  0.247073 *  -1.21800    1.000000    
    459 O2    c    0.398661 *  0.232654 *  0.247093 *  -1.21800    1.000000    
    460 O2    c    0.231810 *  0.899081 *  0.247346 *  -1.21800    1.000000    
    461 O2    c    0.065575 *  0.899162 *  0.247384 *  -1.21800    1.000000    
    462 O2    c    0.899027 *  0.899330 *  0.247285 *  -1.21800    1.000000    
    463 O2    c    0.732194 *  0.899394 *  0.247181 *  -1.21800    1.000000    
    464 O2    c    0.565325 *  0.899343 *  0.247148 *  -1.21800    1.000000    
    465 O2    c    0.398436 *  0.899189 *  0.247214 *  -1.21800    1.000000    
    466 O2    c    0.232062 *  0.566078 *  0.246966 *  -1.21800    1.000000    
    467 O2    c    0.065216 *  0.566007 *  0.247018 *  -1.21800    1.000000    
    468 O2    c    0.898433 *  0.565861 *  0.247122 *  -1.21800    1.000000    
    469 O2    c    0.732046 *  0.565824 *  0.247171 *  -1.21800    1.000000    
    470 O2    c    0.565653 *  0.565904 *  0.247095 *  -1.21800    1.000000    
    471 O2    c    0.398667 *  0.732641 *  0.240491 *  -1.21800    1.000000    
    472 O2    c    0.232091 *  0.399245 *  0.240574 *  -1.21800    1.000000    
    473 O2    c    0.065406 *  0.399257 *  0.240582 *  -1.21800    1.000000    
    474 O2    c    0.898688 *  0.399301 *  0.240566 *  -1.21800    1.000000    
    475 O2    c    0.732018 *  0.399324 *  0.240540 *  -1.21800    1.000000    
    476 O2    c    0.565381 *  0.399316 *  0.240535 *  -1.21800    1.000000    
    477 O2    c    0.398741 *  0.399272 *  0.240551 *  -1.21800    1.000000    
    478 O2    c    0.232092 *  0.065960 *  0.240718 *  -1.21800    1.000000    
    479 O2    c    0.065420 *  0.065951 *  0.240733 *  -1.21800    1.000000    
    480 O2    c    0.898709 *  0.065957 *  0.240705 *  -1.21800    1.000000    
    481 O2    c    0.732019 *  0.065977 *  0.240663 *  -1.21800    1.000000    
    482 O2    c    0.565365 *  0.065981 *  0.240649 *  -1.21800    1.000000    
    483 O2    c    0.398744 *  0.065985 *  0.240676 *  -1.21800    1.000000    
    484 O2    c    0.232084 *  0.732697 *  0.240465 *  -1.21800    1.000000    
    485 O2    c    0.065493 *  0.732688 *  0.240533 *  -1.21800    1.000000    
    486 O2    c    0.898760 *  0.732615 *  0.240620 *  -1.21800    1.000000    
    487 O2    c    0.732017 *  0.732563 *  0.240643 *  -1.21800    1.000000    
    488 O2    c    0.565315 *  0.732576 *  0.240577 *  -1.21800    1.000000    
    489 O2    c    0.315440 *  0.505350 *  0.229315 *  -1.21800    1.000000    
    490 O2    c    0.148704 *  0.171917 *  0.229473 *  -1.21800    1.000000    
    491 O2    c    0.982075 *  0.171910 *  0.229471 *  -1.21800    1.000000    
    492 O2    c    0.815453 *  0.171915 *  0.229433 *  -1.21800    1.000000    
    493 O2    c    0.648742 *  0.171923 *  0.229397 *  -1.21800    1.000000    
    494 O2    c    0.482012 *  0.171917 *  0.229395 *  -1.21800    1.000000    
    495 O2    c    0.315352 *  0.171917 *  0.229434 *  -1.21800    1.000000    
    496 O2    c    0.148683 *  0.838588 *  0.229485 *  -1.21800    1.000000    
    497 O2    c    0.982210 *  0.838621 *  0.229525 *  -1.21800    1.000000    
    498 O2    c    0.815551 *  0.838667 *  0.229510 *  -1.21800    1.000000    
    499 O2    c    0.648750 *  0.838677 *  0.229458 *  -1.21800    1.000000    
    500 O2    c    0.481944 *  0.838665 *  0.229423 *  -1.21800    1.000000    
    501 O2    c    0.315215 *  0.838625 *  0.229438 *  -1.21800    1.000000    
    502 O2    c    0.148656 *  0.505349 *  0.229330 *  -1.21800    1.000000    
    503 O2    c    0.981907 *  0.505320 *  0.229366 *  -1.21800    1.000000    
    504 O2    c    0.815299 *  0.505273 *  0.229380 *  -1.21800    1.000000    
    505 O2    c    0.648813 *  0.505277 *  0.229365 *  -1.21800    1.000000    
    506 O2    c    0.482208 *  0.505324 *  0.229335 *  -1.21800    1.000000    
    507 O2    c    0.315455 *  0.626653 *  0.229255 *  -1.21800    1.000000    
    508 O2    c    0.148696 *  0.293267 *  0.229393 *  -1.21800    1.000000    
    509 O2    c    0.982093 *  0.293269 *  0.229401 *  -1.21800    1.000000    
    510 O2    c    0.815455 *  0.293249 *  0.229384 *  -1.21800    1.000000    
    511 O2    c    0.648733 *  0.293233 *  0.229361 *  -1.21800    1.000000    
    512 O2    c    0.482014 *  0.293248 *  0.229352 *  -1.21800    1.000000    
    513 O2    c    0.315342 *  0.293261 *  0.229368 *  -1.21800    1.000000    
    514 O2    c    0.148692 *  0.959982 *  0.229619 *  -1.21800    1.000000    
    515 O2    c    0.982213 *  0.959975 *  0.229596 *  -1.21800    1.000000    
    516 O2    c    0.815536 *  0.959959 *  0.229511 *  -1.21800    1.000000    
    517 O2    c    0.648761 *  0.959952 *  0.229453 *  -1.21800    1.000000    
    518 O2    c    0.481949 *  0.959939 *  0.229482 *  -1.21800    1.000000    
    519 O2    c    0.315204 *  0.959950 *  0.229567 *  -1.21800    1.000000    
    520 O2    c    0.148656 *  0.626651 *  0.229277 *  -1.21800    1.000000    
    521 O2    c    0.981890 *  0.626655 *  0.229367 *  -1.21800    1.000000    
    522 O2    c    0.815304 *  0.626676 *  0.229428 *  -1.21800    1.000000    
    523 O2    c    0.648817 *  0.626676 *  0.229406 *  -1.21800    1.000000    
    524 O2    c    0.482202 *  0.626657 *  0.229322 *  -1.21800    1.000000    
    525 O2    c    0.398883 *  0.732780 *  0.219841 *  -1.21800    1.000000    
    526 O2    c    0.232002 *  0.399410 *  0.219916 *  -1.21800    1.000000    
    527 O2    c    0.065379 *  0.399404 *  0.219921 *  -1.21800    1.000000    
    528 O2    c    0.898776 *  0.399240 *  0.219905 *  -1.21800    1.000000    
    529 O2    c    0.732105 *  0.399060 *  0.219881 *  -1.21800    1.000000    
    530 O2    c    0.565388 *  0.399177 *  0.219878 *  -1.21800    1.000000    
    531 O2    c    0.398678 *  0.399373 *  0.219895 *  -1.21800    1.000000    
    532 O2    c    0.231955 *  0.065840 *  0.220058 *  -1.21800    1.000000    
    533 O2    c    0.065418 *  0.065883 *  0.220069 *  -1.21800    1.000000    
    534 O2    c    0.898861 *  0.065796 *  0.220045 *  -1.21800    1.000000    
    535 O2    c    0.732166 *  0.065846 *  0.220008 *  -1.21800    1.000000    
    536 O2    c    0.565361 *  0.065802 *  0.219997 *  -1.21800    1.000000    
    537 O2    c    0.398585 *  0.065705 *  0.220022 *  -1.21800    1.000000    
    538 O2    c    0.231982 *  0.732623 *  0.219815 *  -1.21800    1.000000    
    539 O2    c    0.065139 *  0.732583 *  0.219875 *  -1.21800    1.000000    
    540 O2    c    0.898571 *  0.732827 *  0.219957 *  -1.21800    1.000000    
    541 O2    c    0.732140 *  0.732973 *  0.219978 *  -1.21800    1.000000    
    542 O2    c    0.565618 *  0.732886 *  0.219921 *  -1.21800    1.000000    
    543 O176  c    0.730246 *  0.527819 *  0.355336 *  -1.08000    1.000000    
    544 O177  c    0.109861 *  0.932092 *  0.416890 *  -1.08000    1.000000    
    545 O176  c    0.730809 *  0.415757 *  0.351243 *  -1.08000    1.000000    
    546 O177  c    0.233980 *  0.928248 *  0.416096 *  -1.08000    1.000000    
    547 O176  c    0.215291 *  0.893486 *  0.355971 *  -1.08000    1.000000    
    548 O177  c    0.689208 *  0.490527 *  0.414297 *  -1.08000    1.000000    
    549 O176  c    0.090530 *  0.897826 *  0.356196 *  -1.08000    1.000000    
    550 O177  c    0.688236 *  0.377712 *  0.413426 *  -1.08000    1.000000    
    551 O171  c    0.178066 *  0.933946 *  0.441896 *  -2.00000    1.000000    
    552 O171  c    0.678416 *  0.433830 *  0.439573 *  -2.00000    1.000000    
    553 O170  c    0.267017 *  0.794507 *  0.448008 *  -1.08000    1.000000    
    554 O170  c    0.025085 *  0.017254 *  0.435833 *  -1.08000    1.000000    
    555 O170  c    0.330176 *  0.850723 *  0.434708 *  -1.08000    1.000000    
    556 O170  c    0.092458 *  0.075082 *  0.448418 *  -1.08000    1.000000    
    557 O170  c    0.328646 *  0.017179 *  0.434091 *  -1.08000    1.000000    
    558 O170  c    0.024003 *  0.851498 *  0.436073 *  -1.08000    1.000000    
    559 O170  c    0.267708 *  0.072814 *  0.447707 *  -1.08000    1.000000    
    560 O170  c    0.092429 *  0.793037 *  0.448443 *  -1.08000    1.000000    
    561 O170  c    0.181333 *  0.991034 *  0.467256 *  -1.08000    1.000000    
    562 O170  c    0.617112 *  0.433517 *  0.526674 *  -1.08000    1.000000    
    563 O170  c    0.180558 *  0.877862 *  0.467280 *  -1.08000    1.000000    
    564 O170  c    0.741255 *  0.433621 *  0.526580 *  -1.08000    1.000000    
    565 O170  c    0.739037 *  0.432792 *  0.465409 *  -1.08000    1.000000    
    566 O170  c    0.180862 *  0.990535 *  0.527764 *  -1.08000    1.000000    
    567 O170  c    0.615040 *  0.432696 *  0.465374 *  -1.08000    1.000000    
    568 O170  c    0.180184 *  0.877513 *  0.527740 *  -1.08000    1.000000    
    569 O170  c    0.526940 *  0.349911 *  0.445989 *  -1.08000    1.000000    
    570 O170  c    0.763499 *  0.575830 *  0.434263 *  -1.08000    1.000000    
    571 O170  c    0.589699 *  0.296600 *  0.432288 *  -1.08000    1.000000    
    572 O170  c    0.830400 *  0.516230 *  0.446682 *  -1.08000    1.000000    
    573 O170  c    0.764108 *  0.293399 *  0.433699 *  -1.08000    1.000000    
    574 O170  c    0.589579 *  0.571934 *  0.432828 *  -1.08000    1.000000    
    575 O170  c    0.830603 *  0.351251 *  0.446415 *  -1.08000    1.000000    
    576 O170  c    0.526357 *  0.516186 *  0.446193 *  -1.08000    1.000000    
    577 O171  c    0.679977 *  0.433808 *  0.552301 *  -2.00000    1.000000    
    578 O171  c    0.180080 *  0.933825 *  0.553278 *  -2.00000    1.000000    
    579 O170  c    0.767362 *  0.295191 *  0.558795 *  -1.08000    1.000000    
    580 O170  c    0.526687 *  0.516905 *  0.545844 *  -1.08000    1.000000    
    581 O170  c    0.833144 *  0.350683 *  0.545703 *  -1.08000    1.000000    
    582 O170  c    0.592987 *  0.572619 *  0.558846 *  -1.08000    1.000000    
    583 O170  c    0.833071 *  0.516966 *  0.545689 *  -1.08000    1.000000    
    584 O170  c    0.526569 *  0.350778 *  0.545899 *  -1.08000    1.000000    
    585 O170  c    0.767254 *  0.572497 *  0.558773 *  -1.08000    1.000000    
    586 O170  c    0.593150 *  0.294920 *  0.558850 *  -1.08000    1.000000    
    587 O170  c    0.680552 *  0.490330 *  0.577914 *  -1.08000    1.000000    
    588 O170  c    0.120598 *  0.933860 *  0.639961 *  -1.08000    1.000000    
    589 O170  c    0.680512 *  0.377369 *  0.577917 *  -1.08000    1.000000    
    590 O170  c    0.244704 *  0.933836 *  0.639886 *  -1.08000    1.000000    
    591 O170  c    0.242408 *  0.933725 *  0.578831 *  -1.08000    1.000000    
    592 O170  c    0.683072 *  0.490405 *  0.638542 *  -1.08000    1.000000    
    593 O170  c    0.118189 *  0.933764 *  0.578892 *  -1.08000    1.000000    
    594 O170  c    0.683033 *  0.377332 *  0.638544 *  -1.08000    1.000000    
    595 O170  c    0.026773 *  0.850589 *  0.559814 *  -1.08000    1.000000    
    596 O170  c    0.267035 *  0.072921 *  0.546872 *  -1.08000    1.000000    
    597 O170  c    0.092734 *  0.795091 *  0.546748 *  -1.08000    1.000000    
    598 O170  c    0.333581 *  0.016878 *  0.559800 *  -1.08000    1.000000    
    599 O170  c    0.267090 *  0.794868 *  0.546777 *  -1.08000    1.000000    
    600 O170  c    0.092679 *  0.072499 *  0.546747 *  -1.08000    1.000000    
    601 O170  c    0.333445 *  0.850624 *  0.559765 *  -1.08000    1.000000    
    602 O170  c    0.026774 *  0.017019 *  0.559823 *  -1.08000    1.000000    
    603 O171  c    0.183070 *  0.933877 *  0.665613 *  -2.00000    1.000000    
    604 O171  c    0.683156 *  0.433893 *  0.664037 *  -2.00000    1.000000    
    605 O170  c    0.270370 *  0.794482 *  0.671909 *  -1.08000    1.000000    
    606 O170  c    0.030569 *  0.016788 *  0.658954 *  -1.08000    1.000000    
    607 O170  c    0.335487 *  0.851029 *  0.658865 *  -1.08000    1.000000    
    608 O170  c    0.095892 *  0.073297 *  0.671976 *  -1.08000    1.000000    
    609 O170  c    0.335429 *  0.016828 *  0.658856 *  -1.08000    1.000000    
    610 O170  c    0.030594 *  0.850983 *  0.658966 *  -1.08000    1.000000    
    611 O170  c    0.270386 *  0.073258 *  0.671921 *  -1.08000    1.000000    
    612 O170  c    0.095883 *  0.794492 *  0.671996 *  -1.08000    1.000000    
    613 O170  c    0.183371 *  0.990216 *  0.691226 *  -1.08000    1.000000    
    614 O173  c    0.617962 *  0.437594 *  0.749466 *  -0.69000    1.000000    
    615 O170  c    0.183564 *  0.877219 *  0.691268 *  -1.08000    1.000000    
    616 O172  c    0.746653 *  0.437357 *  0.749683 *  -0.69000    1.000000    
    617 H21   c    0.742686 *  0.437870 *  0.757999 *   0.22000    1.000000    
    618 O170  c    0.745418 *  0.434104 *  0.689602 *  -1.08000    1.000000    
    619 O173  c    0.183807 *  0.993813 *  0.751127 *  -0.69000    1.000000    
    620 O170  c    0.621163 *  0.434311 *  0.689574 *  -1.08000    1.000000    
    621 O172  c    0.184034 *  0.876612 *  0.751381 *  -0.69000    1.000000    
    622 H21   c    0.184062 *  0.880318 *  0.759695 *   0.22000    1.000000    
    623 O170  c    0.530626 *  0.350839 *  0.670756 *  -1.08000    1.000000    
    624 O170  c    0.770466 *  0.573515 *  0.657740 *  -1.08000    1.000000    
    625 O170  c    0.595765 *  0.294300 *  0.657722 *  -1.08000    1.000000    
    626 O170  c    0.835756 *  0.516874 *  0.670744 *  -1.08000    1.000000    
    627 O170  c    0.770406 *  0.294237 *  0.657747 *  -1.08000    1.000000    
    628 O170  c    0.595824 *  0.573530 *  0.657708 *  -1.08000    1.000000    
    629 O170  c    0.835706 *  0.350891 *  0.670748 *  -1.08000    1.000000    
    630 O170  c    0.530532 *  0.516929 *  0.670717 *  -1.08000    1.000000    
    631 C912  c    0.716306 *  0.511848 *  0.378687 *  -0.07025    1.000000    
    632 C912  c    0.096118 *  0.920945 *  0.392831 *  -0.07025    1.000000    
    633 C912  c    0.715636 *  0.389728 *  0.376632 *  -0.07025    1.000000    
    634 C912  c    0.230976 *  0.916439 *  0.391743 *  -0.07025    1.000000    
    635 C912  c    0.226402 *  0.909433 *  0.379867 *  -0.07025    1.000000    
    636 C912  c    0.707613 *  0.505184 *  0.390526 *  -0.07025    1.000000    
    637 C912  c    0.091544 *  0.914329 *  0.380935 *  -0.07025    1.000000    
    638 C912  c    0.707182 *  0.383105 *  0.388535 *  -0.07025    1.000000    
    639 C916  c    0.727792 *  0.465695 *  0.358666 *   1.07050    1.000000    
    640 C917  c    0.170365 *  0.927936 *  0.411191 *   1.07050    1.000000    
    641 C916  c    0.153408 *  0.899420 *  0.361507 *   1.07050    1.000000    
    642 C917  c    0.692757 *  0.435527 *  0.408533 *   1.07050    1.000000    
    643 C902  c    0.719824 *  0.454382 *  0.371683 *   0.00500    1.000000    
    644 C902  c    0.165732 *  0.921652 *  0.398172 *   0.00500    1.000000    
    645 C902  c    0.156835 *  0.908067 *  0.374513 *   0.00500    1.000000    
    646 C902  c    0.702822 *  0.440902 *  0.395470 *   0.00500    1.000000    
    647 C912  c    0.367391 *  0.682051 *  0.447787 *  -0.07025    1.000000    
    648 C912  c    0.915978 *  0.126522 *  0.434448 *  -0.07025    1.000000    
    649 C912  c    0.439478 *  0.739432 *  0.433278 *  -0.07025    1.000000    
    650 C912  c    0.990540 *  0.187855 *  0.448195 *  -0.07025    1.000000    
    651 C912  c    0.438520 *  0.128486 *  0.432546 *  -0.07025    1.000000    
    652 C912  c    0.914612 *  0.742028 *  0.434893 *  -0.07025    1.000000    
    653 C912  c    0.368428 *  0.184749 *  0.447402 *  -0.07025    1.000000    
    654 C912  c    0.990885 *  0.680448 *  0.448384 *  -0.07025    1.000000    
    655 C912  c    0.181460 *  0.996007 *  0.491543 *  -0.07025    1.000000    
    656 C912  c    0.610798 *  0.433103 *  0.502090 *  -0.07025    1.000000    
    657 C912  c    0.180645 *  0.872774 *  0.491510 *  -0.07025    1.000000    
    658 C912  c    0.745482 *  0.433213 *  0.501946 *  -0.07025    1.000000    
    659 C912  c    0.744894 *  0.433036 *  0.489943 *  -0.07025    1.000000    
    660 C912  c    0.181331 *  0.995876 *  0.503498 *  -0.07025    1.000000    
    661 C912  c    0.610210 *  0.432930 *  0.490084 *  -0.07025    1.000000    
    662 C912  c    0.180562 *  0.872642 *  0.503464 *  -0.07025    1.000000    
    663 C912  c    0.418396 *  0.239319 *  0.447157 *  -0.07025    1.000000    
    664 C912  c    0.864409 *  0.687708 *  0.434602 *  -0.07025    1.000000    
    665 C912  c    0.488404 *  0.183194 *  0.432277 *  -0.07025    1.000000    
    666 C912  c    0.940527 *  0.626192 *  0.448122 *  -0.07025    1.000000    
    667 C912  c    0.865623 *  0.180722 *  0.434052 *  -0.07025    1.000000    
    668 C912  c    0.489073 *  0.684557 *  0.433001 *  -0.07025    1.000000    
    669 C912  c    0.939910 *  0.241871 *  0.447859 *  -0.07025    1.000000    
    670 C912  c    0.417107 *  0.627273 *  0.447535 *  -0.07025    1.000000    
    671 C913  c    0.322167 *  0.798490 *  0.441112 *   1.07050    1.000000    
    672 C913  c    0.035289 *  0.070363 *  0.441937 *   1.07050    1.000000    
    673 C913  c    0.321822 *  0.069080 *  0.440610 *   1.07050    1.000000    
    674 C913  c    0.034667 *  0.798161 *  0.442102 *   1.07050    1.000000    
    675 C913  c    0.181017 *  0.934485 *  0.472582 *   1.07050    1.000000    
    676 C913  c    0.679004 *  0.433479 *  0.521249 *   1.07050    1.000000    
    677 C913  c    0.676984 *  0.432776 *  0.470781 *   1.07050    1.000000    
    678 C913  c    0.180630 *  0.934066 *  0.522424 *   1.07050    1.000000    
    679 C913  c    0.534905 *  0.298970 *  0.439285 *   1.07050    1.000000    
    680 C913  c    0.820571 *  0.570044 *  0.440735 *   1.07050    1.000000    
    681 C913  c    0.820792 *  0.298163 *  0.440284 *   1.07050    1.000000    
    682 C913  c    0.534399 *  0.568180 *  0.439728 *   1.07050    1.000000    
    683 C902  c    0.378060 *  0.738563 *  0.440680 *   0.00500    1.000000    
    684 C902  c    0.978968 *  0.129781 *  0.441506 *   0.00500    1.000000    
    685 C902  c    0.377985 *  0.128836 *  0.440127 *   0.00500    1.000000    
    686 C902  c    0.978391 *  0.738695 *  0.441773 *   0.00500    1.000000    
    687 C902  c    0.181057 *  0.934446 *  0.485637 *   0.00500    1.000000    
    688 C902  c    0.678422 *  0.433257 *  0.508041 *   0.00500    1.000000    
    689 C902  c    0.677288 *  0.432912 *  0.483990 *   0.00500    1.000000    
    690 C902  c    0.180855 *  0.934199 *  0.509370 *   0.00500    1.000000    
    691 C902  c    0.478962 *  0.238993 *  0.439591 *   0.00500    1.000000    
    692 C902  c    0.876904 *  0.629435 *  0.441200 *   0.00500    1.000000    
    693 C902  c    0.877089 *  0.238731 *  0.440761 *   0.00500    1.000000    
    694 C902  c    0.478489 *  0.628106 *  0.440127 *   0.00500    1.000000    
    695 C912  c    0.866961 *  0.183861 *  0.559688 *  -0.07025    1.000000    
    696 C912  c    0.416321 *  0.628500 *  0.545578 *  -0.07025    1.000000    
    697 C912  c    0.943641 *  0.238831 *  0.545466 *  -0.07025    1.000000    
    698 C912  c    0.493237 *  0.684068 *  0.559707 *  -0.07025    1.000000    
    699 C912  c    0.943618 *  0.628780 *  0.545458 *  -0.07025    1.000000    
    700 C912  c    0.416197 *  0.239203 *  0.545661 *  -0.07025    1.000000    
    701 C912  c    0.866908 *  0.683800 *  0.559670 *  -0.07025    1.000000    
    702 C912  c    0.493434 *  0.183474 *  0.559730 *  -0.07025    1.000000    
    703 C912  c    0.681600 *  0.495427 *  0.602253 *  -0.07025    1.000000    
    704 C912  c    0.114322 *  0.933814 *  0.615457 *  -0.07025    1.000000    
    705 C912  c    0.681557 *  0.372292 *  0.602253 *  -0.07025    1.000000    
    706 C912  c    0.249141 *  0.933783 *  0.615315 *  -0.07025    1.000000    
    707 C912  c    0.248575 *  0.933758 *  0.603322 *  -0.07025    1.000000    
    708 C912  c    0.682120 *  0.495428 *  0.614216 *  -0.07025    1.000000    
    709 C912  c    0.113756 *  0.933796 *  0.603464 *  -0.07025    1.000000    
    710 C912  c    0.682077 *  0.372292 *  0.614216 *  -0.07025    1.000000    
    711 C912  c    0.916329 *  0.738754 *  0.560046 *  -0.07025    1.000000    
    712 C912  c    0.366696 *  0.184320 *  0.546018 *  -0.07025    1.000000    
    713 C912  c    0.993074 *  0.683708 *  0.545841 *  -0.07025    1.000000    
    714 C912  c    0.443974 *  0.128554 *  0.560078 *  -0.07025    1.000000    
    715 C912  c    0.366811 *  0.683383 *  0.545925 *  -0.07025    1.000000    
    716 C912  c    0.993068 *  0.183882 *  0.545846 *  -0.07025    1.000000    
    717 C912  c    0.443756 *  0.738975 *  0.560047 *  -0.07025    1.000000    
    718 C912  c    0.916355 *  0.128887 *  0.560061 *  -0.07025    1.000000    
    719 C913  c    0.824040 *  0.298989 *  0.552206 *   1.07050    1.000000    
    720 C913  c    0.536082 *  0.568727 *  0.552305 *   1.07050    1.000000    
    721 C913  c    0.823956 *  0.568675 *  0.552189 *   1.07050    1.000000    
    722 C913  c    0.536103 *  0.298889 *  0.552340 *   1.07050    1.000000    
    723 C913  c    0.680750 *  0.433854 *  0.583258 *   1.07050    1.000000    
    724 C913  c    0.182509 *  0.933837 *  0.634555 *   1.07050    1.000000    
    725 C913  c    0.180416 *  0.933749 *  0.584222 *   1.07050    1.000000    
    726 C913  c    0.682865 *  0.433865 *  0.633210 *   1.07050    1.000000    
    727 C913  c    0.035971 *  0.798875 *  0.553319 *   1.07050    1.000000    
    728 C913  c    0.324071 *  0.068867 *  0.553382 *   1.07050    1.000000    
    729 C913  c    0.324014 *  0.798763 *  0.553314 *   1.07050    1.000000    
    730 C913  c    0.035946 *  0.068723 *  0.553325 *   1.07050    1.000000    
    731 C902  c    0.880036 *  0.239179 *  0.552405 *   0.00500    1.000000    
    732 C902  c    0.480071 *  0.628496 *  0.552486 *   0.00500    1.000000    
    733 C902  c    0.879982 *  0.628465 *  0.552391 *   0.00500    1.000000    
    734 C902  c    0.480101 *  0.239124 *  0.552534 *   0.00500    1.000000    
    735 C902  c    0.681318 *  0.433859 *  0.596340 *   0.00500    1.000000    
    736 C902  c    0.182001 *  0.933810 *  0.621381 *   0.00500    1.000000    
    737 C902  c    0.180897 *  0.933768 *  0.597398 *   0.00500    1.000000    
    738 C902  c    0.682343 *  0.433861 *  0.620128 *   0.00500    1.000000    
    739 C902  c    0.979977 *  0.739060 *  0.553116 *   0.00500    1.000000    
    740 C902  c    0.380064 *  0.128641 *  0.553205 *   0.00500    1.000000    
    741 C902  c    0.380001 *  0.738975 *  0.553140 *   0.00500    1.000000    
    742 C902  c    0.979973 *  0.128549 *  0.553125 *   0.00500    1.000000    
    743 C912  c    0.371082 *  0.682262 *  0.671967 *  -0.07025    1.000000    
    744 C912  c    0.921045 *  0.127360 *  0.657857 *  -0.07025    1.000000    
    745 C912  c    0.445163 *  0.740395 *  0.657775 *  -0.07025    1.000000    
    746 C912  c    0.995158 *  0.185626 *  0.672031 *  -0.07025    1.000000    
    747 C912  c    0.445119 *  0.127460 *  0.657781 *  -0.07025    1.000000    
    748 C912  c    0.921107 *  0.740402 *  0.657858 *  -0.07025    1.000000    
    749 C912  c    0.371133 *  0.185474 *  0.671999 *  -0.07025    1.000000    
    750 C912  c    0.995176 *  0.682140 *  0.672038 *  -0.07025    1.000000    
    751 C912  c    0.183688 *  0.995478 *  0.715651 *  -0.07025    1.000000    
    752 C912  c    0.615675 *  0.436053 *  0.725968 *  -0.07025    1.000000    
    753 C912  c    0.183906 *  0.872532 *  0.715692 *  -0.07025    1.000000    
    754 C912  c    0.750794 *  0.435799 *  0.725974 *  -0.07025    1.000000    
    755 C912  c    0.750693 *  0.435178 *  0.713996 *  -0.07025    1.000000    
    756 C912  c    0.183794 *  0.995634 *  0.727627 *  -0.07025    1.000000    
    757 C912  c    0.615697 *  0.435414 *  0.713993 *  -0.07025    1.000000    
    758 C912  c    0.184025 *  0.872576 *  0.727671 *  -0.07025    1.000000    
    759 C912  c    0.421030 *  0.240101 *  0.671867 *  -0.07025    1.000000    
    760 C912  c    0.871160 *  0.685823 *  0.657713 *  -0.07025    1.000000    
    761 C912  c    0.495078 *  0.182040 *  0.657662 *  -0.07025    1.000000    
    762 C912  c    0.945274 *  0.627522 *  0.671883 *  -0.07025    1.000000    
    763 C912  c    0.871095 *  0.181938 *  0.657716 *  -0.07025    1.000000    
    764 C912  c    0.495123 *  0.685816 *  0.657650 *  -0.07025    1.000000    
    765 C912  c    0.945245 *  0.240235 *  0.671882 *  -0.07025    1.000000    
    766 C912  c    0.420970 *  0.627631 *  0.671827 *  -0.07025    1.000000    
    767 C913  c    0.326528 *  0.798679 *  0.665212 *   1.07050    1.000000    
    768 C913  c    0.039658 *  0.069142 *  0.665295 *   1.07050    1.000000    
    769 C913  c    0.326515 *  0.069122 *  0.665218 *   1.07050    1.000000    
    770 C913  c    0.039677 *  0.798636 *  0.665308 *   1.07050    1.000000    
    771 C913  c    0.183547 *  0.933787 *  0.696595 *   1.07050    1.000000    
    772 C914  c    0.682710 *  0.437159 *  0.745050 *   1.07050    1.000000    
    773 C913  c    0.683241 *  0.434421 *  0.694919 *   1.07050    1.000000    
    774 C914  c    0.183933 *  0.934797 *  0.746729 *   1.07050    1.000000    
    775 C913  c    0.539600 *  0.298462 *  0.664417 *   1.07050    1.000000    
    776 C913  c    0.826688 *  0.569303 *  0.664422 *   1.07050    1.000000    
    777 C913  c    0.826636 *  0.298454 *  0.664428 *   1.07050    1.000000    
    778 C913  c    0.539588 *  0.569336 *  0.664388 *   1.07050    1.000000    
    779 C902  c    0.382644 *  0.738993 *  0.664947 *   0.00500    1.000000    
    780 C902  c    0.983576 *  0.128838 *  0.665025 *   0.00500    1.000000    
    781 C902  c    0.382641 *  0.128804 *  0.664962 *   0.00500    1.000000    
    782 C902  c    0.983610 *  0.738929 *  0.665032 *   0.00500    1.000000    
    783 C902  c    0.183722 *  0.933941 *  0.709721 *   0.00500    1.000000    
    784 C902  c    0.683207 *  0.436296 *  0.731928 *   0.00500    1.000000    
    785 C902  c    0.683195 *  0.435016 *  0.708044 *   0.00500    1.000000    
    786 C902  c    0.183928 *  0.934197 *  0.733606 *   0.00500    1.000000    
    787 C902  c    0.483519 *  0.238748 *  0.664687 *   0.00500    1.000000    
    788 C902  c    0.882756 *  0.629008 *  0.664710 *   0.00500    1.000000    
    789 C902  c    0.882707 *  0.238751 *  0.664713 *   0.00500    1.000000    
    790 C902  c    0.483513 *  0.629050 *  0.664660 *   0.00500    1.000000    
    791 H915  c    0.719897 *  0.562305 *  0.374743 *   0.11250    1.000000    
    792 H915  c    0.045733 *  0.925549 *  0.398103 *   0.11250    1.000000    
    793 H915  c    0.718656 *  0.344432 *  0.371206 *   0.11250    1.000000    
    794 H915  c    0.284987 *  0.917534 *  0.396143 *   0.11250    1.000000    
    795 H915  c    0.276919 *  0.905184 *  0.374629 *   0.11250    1.000000    
    796 H915  c    0.704350 *  0.550010 *  0.396092 *   0.11250    1.000000    
    797 H915  c    0.037410 *  0.913644 *  0.376576 *   0.11250    1.000000    
    798 H915  c    0.703521 *  0.332900 *  0.392560 *   0.11250    1.000000    
    799 H915  c    0.319233 *  0.681452 *  0.453585 *   0.11250    1.000000    
    800 H915  c    0.906852 *  0.081088 *  0.429195 *   0.11250    1.000000    
    801 H915  c    0.448147 *  0.783530 *  0.427692 *   0.11250    1.000000    
    802 H915  c    0.039918 *  0.190285 *  0.453728 *   0.11250    1.000000    
    803 H915  c    0.446320 *  0.084907 *  0.426814 *   0.11250    1.000000    
    804 H915  c    0.904687 *  0.787611 *  0.429713 *   0.11250    1.000000    
    805 H915  c    0.320973 *  0.185006 *  0.453337 *   0.11250    1.000000    
    806 H915  c    0.040909 *  0.678018 *  0.453778 *   0.11250    1.000000    
    807 H915  c    0.181790 *  0.043661 *  0.486680 *   0.11250    1.000000    
    808 H915  c    0.558551 *  0.433132 *  0.506972 *   0.11250    1.000000    
    809 H915  c    0.180356 *  0.825224 *  0.486617 *   0.11250    1.000000    
    810 H915  c    0.798191 *  0.433328 *  0.506709 *   0.11250    1.000000    
    811 H915  c    0.797142 *  0.433014 *  0.485061 *   0.11250    1.000000    
    812 H915  c    0.181576 *  0.043427 *  0.508391 *   0.11250    1.000000    
    813 H915  c    0.557499 *  0.432824 *  0.485322 *   0.11250    1.000000    
    814 H915  c    0.180204 *  0.824989 *  0.508327 *   0.11250    1.000000    
    815 H915  c    0.410653 *  0.282869 *  0.452897 *   0.11250    1.000000    
    816 H915  c    0.814432 *  0.690109 *  0.429197 *   0.11250    1.000000    
    817 H915  c    0.535842 *  0.182890 *  0.426339 *   0.11250    1.000000    
    818 H915  c    0.950465 *  0.580616 *  0.453303 *   0.11250    1.000000    
    819 H915  c    0.816326 *  0.178320 *  0.428502 *   0.11250    1.000000    
    820 H915  c    0.537230 *  0.685180 *  0.427203 *   0.11250    1.000000    
    821 H915  c    0.949021 *  0.287290 *  0.453115 *   0.11250    1.000000    
    822 H915  c    0.408484 *  0.583222 *  0.453133 *   0.11250    1.000000    
    823 H915  c    0.817006 *  0.184360 *  0.565112 *   0.11250    1.000000    
    824 H915  c    0.405684 *  0.585136 *  0.539910 *   0.11250    1.000000    
    825 H915  c    0.954245 *  0.281968 *  0.539746 *   0.11250    1.000000    
    826 H915  c    0.543305 *  0.683831 *  0.565107 *   0.11250    1.000000    
    827 H915  c    0.954226 *  0.585630 *  0.539741 *   0.11250    1.000000    
    828 H915  c    0.405430 *  0.282631 *  0.540012 *   0.11250    1.000000    
    829 H915  c    0.816931 *  0.683332 *  0.565090 *   0.11250    1.000000    
    830 H915  c    0.543628 *  0.183654 *  0.565103 *   0.11250    1.000000    
    831 H915  c    0.681405 *  0.543064 *  0.597384 *   0.11250    1.000000    
    832 H915  c    0.062114 *  0.933836 *  0.620350 *   0.11250    1.000000    
    833 H915  c    0.681330 *  0.324655 *  0.597385 *   0.11250    1.000000    
    834 H915  c    0.301800 *  0.933779 *  0.620091 *   0.11250    1.000000    
    835 H915  c    0.300785 *  0.933736 *  0.598429 *   0.11250    1.000000    
    836 H915  c    0.682340 *  0.543067 *  0.619084 *   0.11250    1.000000    
    837 H915  c    0.061096 *  0.933802 *  0.598688 *   0.11250    1.000000    
    838 H915  c    0.682265 *  0.324654 *  0.619084 *   0.11250    1.000000    
    839 H915  c    0.905716 *  0.781909 *  0.565761 *   0.11250    1.000000    
    840 H915  c    0.316499 *  0.184141 *  0.540647 *   0.11250    1.000000    
    841 H915  c    0.043056 *  0.684171 *  0.540423 *   0.11250    1.000000    
    842 H915  c    0.454754 *  0.085115 *  0.565724 *   0.11250    1.000000    
    843 H915  c    0.316740 *  0.683618 *  0.540526 *   0.11250    1.000000    
    844 H915  c    0.043028 *  0.183389 *  0.540423 *   0.11250    1.000000    
    845 H915  c    0.454400 *  0.782345 *  0.565714 *   0.11250    1.000000    
    846 H915  c    0.905745 *  0.085745 *  0.565780 *   0.11250    1.000000    
    847 H915  c    0.322019 *  0.681291 *  0.677579 *   0.11250    1.000000    
    848 H915  c    0.911746 *  0.082980 *  0.652360 *   0.11250    1.000000    
    849 H915  c    0.454468 *  0.784724 *  0.652266 *   0.11250    1.000000    
    850 H915  c    0.044228 *  0.186650 *  0.677642 *   0.11250    1.000000    
    851 H915  c    0.454386 *  0.083181 *  0.652260 *   0.11250    1.000000    
    852 H915  c    0.911823 *  0.784784 *  0.652361 *   0.11250    1.000000    
    853 H915  c    0.322111 *  0.186399 *  0.677620 *   0.11250    1.000000    
    854 H915  c    0.044231 *  0.681118 *  0.677652 *   0.11250    1.000000    
    855 H915  c    0.183562 *  0.043121 *  0.710781 *   0.11250    1.000000    
    856 H915  c    0.563092 *  0.436399 *  0.730778 *   0.11250    1.000000    
    857 H915  c    0.183952 *  0.824821 *  0.710841 *   0.11250    1.000000    
    858 H915  c    0.803481 *  0.435949 *  0.730748 *   0.11250    1.000000    
    859 H915  c    0.803018 *  0.434824 *  0.709129 *   0.11250    1.000000    
    860 H915  c    0.183754 *  0.043577 *  0.732421 *   0.11250    1.000000    
    861 H915  c    0.563328 *  0.435248 *  0.709137 *   0.11250    1.000000    
    862 H915  c    0.184164 *  0.824647 *  0.732461 *   0.11250    1.000000    
    863 H915  c    0.411745 *  0.284385 *  0.677387 *   0.11250    1.000000    
    864 H915  c    0.822101 *  0.686846 *  0.652100 *   0.11250    1.000000    
    865 H915  c    0.544115 *  0.181112 *  0.652044 *   0.11250    1.000000    
    866 H915  c    0.954576 *  0.583131 *  0.677377 *   0.11250    1.000000    
    867 H915  c    0.822018 *  0.180913 *  0.652107 *   0.11250    1.000000    
    868 H915  c    0.544199 *  0.686792 *  0.652040 *   0.11250    1.000000    
    869 H915  c    0.954560 *  0.284619 *  0.677377 *   0.11250    1.000000    
    870 H915  c    0.411647 *  0.583294 *  0.677333 *   0.11250    1.000000    
    871 Zn172 c    0.179700 *  0.848845 *  0.451582 *   2.00000    1.000000    
    872 Zn172 c    0.081571 *  0.934157 *  0.432679 *   2.00000    1.000000    
    873 Zn172 c    0.270311 *  0.933238 *  0.431632 *   2.00000    1.000000    
    874 Zn172 c    0.180136 *  0.019349 *  0.451505 *   2.00000    1.000000    
    875 Zn172 c    0.772018 *  0.433240 *  0.449586 *   2.00000    1.000000    
    876 Zn172 c    0.679203 *  0.519128 *  0.430068 *   2.00000    1.000000    
    877 Zn172 c    0.584287 *  0.432851 *  0.449386 *   2.00000    1.000000    
    878 Zn172 c    0.679290 *  0.349696 *  0.429470 *   2.00000    1.000000    
    879 Zn172 c    0.680228 *  0.349303 *  0.562108 *   2.00000    1.000000    
    880 Zn172 c    0.585277 *  0.433768 *  0.542556 *   2.00000    1.000000    
    881 Zn172 c    0.774191 *  0.433795 *  0.542433 *   2.00000    1.000000    
    882 Zn172 c    0.680168 *  0.518335 *  0.562101 *   2.00000    1.000000    
    883 Zn172 c    0.274770 *  0.933752 *  0.563025 *   2.00000    1.000000    
    884 Zn172 c    0.180100 *  0.018515 *  0.543534 *   2.00000    1.000000    
    885 Zn172 c    0.085570 *  0.933797 *  0.563072 *   2.00000    1.000000    
    886 Zn172 c    0.179984 *  0.849252 *  0.543501 *   2.00000    1.000000    
    887 Zn172 c    0.183233 *  0.849093 *  0.675388 *   2.00000    1.000000    
    888 Zn172 c    0.088804 *  0.933883 *  0.655807 *   2.00000    1.000000    
    889 Zn172 c    0.277073 *  0.933904 *  0.655726 *   2.00000    1.000000    
    890 Zn172 c    0.183196 *  0.018721 *  0.675384 *   2.00000    1.000000    
    891 Zn172 c    0.777447 *  0.433884 *  0.673808 *   2.00000    1.000000    
    892 Zn172 c    0.683164 *  0.518908 *  0.654311 *   2.00000    1.000000    
    893 Zn172 c    0.588788 *  0.433930 *  0.673808 *   2.00000    1.000000    
    894 Zn172 c    0.683123 *  0.348858 *  0.654315 *   2.00000    1.000000    
--------------------------------------------------------------------------------



  Molecule list generated from bond lengths :

  Total number of molecules =    22

--------------------------------------------------------------------------------
Molecule No./:  Atoms
Periodicity  :  
--------------------------------------------------------------------------------
     1  0    : O3   c   182 H22  c   183
     2  0    : O3   c   195 H22  c   196
     3  0    : O176 c   543 O176 c   545 O177 c   548 O177 c   550 C912 c   631
             : C912 c   633 C912 c   636 C912 c   638 C916 c   639 C917 c   642
             : C902 c   643 C902 c   646 H915 c   791 H915 c   793 H915 c   796
             : H915 c   798
     4  0    : O177 c   544 O177 c   546 O176 c   547 O176 c   549 C912 c   632
             : C912 c   634 C912 c   635 C912 c   637 C917 c   640 C916 c   641
             : C902 c   644 C902 c   645 H915 c   792 H915 c   794 H915 c   795
             : H915 c   797
     5  0    : O170 c   553 O170 c   555 O170 c   574 O170 c   576 C912 c   647
             : C912 c   649 C912 c   668 C912 c   670 C913 c   671 C913 c   682
             : C902 c   683 C902 c   694 H915 c   799 H915 c   801 H915 c   820
             : H915 c   822
     6  0    : O170 c   554 O170 c   556 O170 c   573 O170 c   575 C912 c   648
             : C912 c   650 C912 c   667 C912 c   669 C913 c   672 C913 c   681
             : C902 c   684 C902 c   693 H915 c   800 H915 c   802 H915 c   819
             : H915 c   821
     7  0    : O170 c   557 O170 c   559 O170 c   569 O170 c   571 C912 c   651
             : C912 c   653 C912 c   663 C912 c   665 C913 c   673 C913 c   679
             : C902 c   685 C902 c   691 H915 c   803 H915 c   805 H915 c   815
             : H915 c   817
     8  0    : O170 c   558 O170 c   560 O170 c   570 O170 c   572 C912 c   652
             : C912 c   654 C912 c   664 C912 c   666 C913 c   674 C913 c   680
             : C902 c   686 C902 c   692 H915 c   804 H915 c   806 H915 c   816
             : H915 c   818
     9  0    : O170 c   561 O170 c   563 O170 c   566 O170 c   568 C912 c   655
             : C912 c   657 C912 c   660 C912 c   662 C913 c   675 C913 c   678
             : C902 c   687 C902 c   690 H915 c   807 H915 c   809 H915 c   812
             : H915 c   814
    10  0    : O170 c   562 O170 c   564 O170 c   565 O170 c   567 C912 c   656
             : C912 c   658 C912 c   659 C912 c   661 C913 c   676 C913 c   677
             : C902 c   688 C902 c   689 H915 c   808 H915 c   810 H915 c   811
             : H915 c   813
    11  0    : O170 c   579 O170 c   581 O170 c   600 O170 c   602 C912 c   695
             : C912 c   697 C912 c   716 C912 c   718 C913 c   719 C913 c   730
             : C902 c   731 C902 c   742 H915 c   823 H915 c   825 H915 c   844
             : H915 c   846
    12  0    : O170 c   580 O170 c   582 O170 c   599 O170 c   601 C912 c   696
             : C912 c   698 C912 c   715 C912 c   717 C913 c   720 C913 c   729
             : C902 c   732 C902 c   741 H915 c   824 H915 c   826 H915 c   843
             : H915 c   845
    13  0    : O170 c   583 O170 c   585 O170 c   595 O170 c   597 C912 c   699
             : C912 c   701 C912 c   711 C912 c   713 C913 c   721 C913 c   727
             : C902 c   733 C902 c   739 H915 c   827 H915 c   829 H915 c   839
             : H915 c   841
    14  0    : O170 c   584 O170 c   586 O170 c   596 O170 c   598 C912 c   700
             : C912 c   702 C912 c   712 C912 c   714 C913 c   722 C913 c   728
             : C902 c   734 C902 c   740 H915 c   828 H915 c   830 H915 c   840
             : H915 c   842
    15  0    : O170 c   587 O170 c   589 O170 c   592 O170 c   594 C912 c   703
             : C912 c   705 C912 c   708 C912 c   710 C913 c   723 C913 c   726
             : C902 c   735 C902 c   738 H915 c   831 H915 c   833 H915 c   836
             : H915 c   838
    16  0    : O170 c   588 O170 c   590 O170 c   591 O170 c   593 C912 c   704
             : C912 c   706 C912 c   707 C912 c   709 C913 c   724 C913 c   725
             : C902 c   736 C902 c   737 H915 c   832 H915 c   834 H915 c   835
             : H915 c   837
    17  0    : O170 c   605 O170 c   607 O170 c   628 O170 c   630 C912 c   743
             : C912 c   745 C912 c   764 C912 c   766 C913 c   767 C913 c   778
             : C902 c   779 C902 c   790 H915 c   847 H915 c   849 H915 c   868
             : H915 c   870
    18  0    : O170 c   606 O170 c   608 O170 c   627 O170 c   629 C912 c   744
             : C912 c   746 C912 c   763 C912 c   765 C913 c   768 C913 c   777
             : C902 c   780 C902 c   789 H915 c   848 H915 c   850 H915 c   867
             : H915 c   869
    19  0    : O170 c   609 O170 c   611 O170 c   623 O170 c   625 C912 c   747
             : C912 c   749 C912 c   759 C912 c   761 C913 c   769 C913 c   775
             : C902 c   781 C902 c   787 H915 c   851 H915 c   853 H915 c   863
             : H915 c   865
    20  0    : O170 c   610 O170 c   612 O170 c   624 O170 c   626 C912 c   748
             : C912 c   750 C912 c   760 C912 c   762 C913 c   770 C913 c   776
             : C902 c   782 C902 c   788 H915 c   852 H915 c   854 H915 c   864
             : H915 c   866
    21  0    : O170 c   613 O170 c   615 O173 c   619 O172 c   621 H21  c   622
             : C912 c   751 C912 c   753 C912 c   756 C912 c   758 C913 c   771
             : C914 c   774 C902 c   783 C902 c   786 H915 c   855 H915 c   857
             : H915 c   860 H915 c   862
[...]
   640 C917  c    -17.477988          -0.349414   -0.532578   -6.872867
   641 C916  c    -16.457550           0.352371    0.694274    6.155217
   642 C917  c    -17.423961           0.890851    0.338639   -6.954147
   643 C902  c      1.870574           0.165227    0.473994   -4.114644
   644 C902  c      1.268857           0.294699    0.209213    3.689127
   645 C902  c      1.518705          -0.134558   -0.635932   -3.927003
   646 C902  c      1.327370          -0.464669   -0.301224    3.543450
   647 C912  c      1.088434          -1.047675    0.428299    0.535352
   648 C912  c      1.024710           0.279859   -1.182779   -0.440990
   649 C912  c      1.128815          -0.287572    1.170192   -0.528920
   650 C912  c      1.051148           1.096854   -0.404148    0.525516
   651 C912  c      1.086122          -0.296262   -1.170707   -0.525246
   652 C912  c      1.086654           0.274025    1.181579   -0.464568
   653 C912  c      1.057054          -1.040911   -0.438038    0.551880
   654 C912  c      1.086022           1.098133    0.397946    0.498359
   655 C912  c      1.067382           0.017702    0.692866   -1.053034
   656 C912  c      1.079818          -0.733123    0.003380    1.047491
   657 C912  c      1.067022           0.010044   -0.692227   -1.051966
   658 C912  c      1.075326           0.722335    0.004652    1.051690
   659 C912  c      1.075324           0.728595   -0.001915   -1.047059
   660 C912  c      1.066590          -0.011720    0.692482    1.051916
   661 C912  c      1.081619          -0.728139   -0.003095   -1.054528
   662 C912  c      1.067137          -0.018850   -0.692817    1.051987
   663 C912  c      1.092690           0.284921    1.174427    0.519367
   664 C912  c      1.062213          -1.072191   -0.418674   -0.503810
   665 C912  c      1.058718           1.041639    0.457772   -0.559050
   666 C912  c      1.113419          -0.251992   -1.206459    0.462432
   667 C912  c      1.008880          -1.082752    0.426235   -0.495558
   668 C912  c      1.099134           1.036554   -0.450156   -0.563212
   669 C912  c      1.070397          -0.262434    1.196327    0.474204
   670 C912  c      1.128860           0.272632   -1.188173    0.502188
   671 C913  c    -17.489356           4.704456   -5.353439   -0.396983
   672 C913  c    -17.517099          -4.689448    5.332195   -0.292929
   673 C913  c    -17.496339           4.719591    5.319360   -0.428541
   674 C913  c    -17.497821          -4.709305   -5.333365   -0.254144
   675 C913  c    -17.454412          -0.083955    0.009783    6.880050
   676 C913  c    -17.466482           0.003121   -0.025362   -6.985116
   677 C913  c    -17.472577          -0.057159    0.020593    7.004069
   678 C913  c    -17.465187           0.112668    0.001926   -6.898514
   679 C913  c    -17.484039          -4.633809   -5.396969    0.263149
   680 C913  c    -17.488697           4.734878    5.289491    0.378195
   681 C913  c    -17.508277           4.685333   -5.321111    0.333265
   682 C913  c    -17.461953          -4.659230    5.374432    0.350758
   683 C902  c      1.226656          -2.269799    2.715255    0.065470
   684 C902  c      1.174517           2.330893   -2.706447    0.103809
   685 C902  c      1.195277          -2.276360   -2.719250    0.083024
   686 C902  c      1.216542           2.323710    2.700847    0.057791
   687 C902  c      1.277456           0.041790   -0.001099   -3.741403
   688 C902  c      1.236754          -0.009225    0.013033    3.631690
   689 C902  c      1.237215           0.013701   -0.009078   -3.630278
   690 C902  c      1.276377          -0.057949   -0.001397    3.740073
   691 C902  c      1.202815           2.270058    2.730171   -0.062425
   692 C902  c      1.218446          -2.293620   -2.726989   -0.097810
   693 C902  c      1.177898          -2.312091    2.725190   -0.093439
   694 C902  c      1.237088           2.257018   -2.734679   -0.086057
   695 C912  c      1.042250          -1.058445    0.445676    0.473239
   696 C912  c      1.098884           0.250569   -1.187590   -0.559863
   697 C912  c      1.098342          -0.251207    1.186947   -0.561597
   698 C912  c      1.043062           1.061562   -0.442979    0.469364
   699 C912  c      1.099052          -0.251144   -1.187178   -0.561672
   700 C912  c      1.097891           0.249386    1.188706   -0.558111
   701 C912  c      1.042720          -1.059128   -0.445154    0.472310
   702 C912  c      1.042578           1.062871    0.442029    0.467225
   703 C912  c      1.069407           0.000696    0.699596   -1.052383
   704 C912  c      1.067792          -0.720078    0.000437    1.049649
   705 C912  c      1.069283           0.000295   -0.699798   -1.052156
   706 C912  c      1.067591           0.719527    0.000113    1.050026
   707 C912  c      1.068507           0.719787   -0.000647   -1.051137
   708 C912  c      1.069626          -0.000242    0.699686    1.052574
   709 C912  c      1.068973          -0.719842   -0.000249   -1.051661
   710 C912  c      1.069543          -0.000636   -0.699316    1.052818
   711 C912  c      1.097989           0.251408    1.186737    0.560828
   712 C912  c      1.042124          -1.062099   -0.441845   -0.467256
   713 C912  c      1.043667           1.059756    0.444820   -0.472647
   714 C912  c      1.097901          -0.248805   -1.189211    0.557471
   715 C912  c      1.043698          -1.061484    0.442844   -0.470096
   716 C912  c      1.043229           1.059259   -0.445579   -0.473364
   717 C912  c      1.098127          -0.250451    1.187743    0.558732
   718 C912  c      1.097637           0.251659   -1.186671    0.560981
   719 C913  c    -17.502090           4.752075   -5.291941   -0.091311
   720 C913  c    -17.501521          -4.759546    5.284871   -0.079177
   721 C913  c    -17.501215           4.754661    5.289529   -0.088554
   722 C913  c    -17.502004          -4.759713   -5.283990   -0.073722
   723 C913  c    -17.466076          -0.003477    0.001283    6.924436
   724 C913  c    -17.478725           0.000961   -0.002750   -6.973168
   725 C913  c    -17.467247          -0.003445    0.002386    6.958309
   726 C913  c    -17.457532           0.003096   -0.001177   -6.910415
   727 C913  c    -17.501308          -4.753827   -5.292045    0.083862
   728 C913  c    -17.503459           4.763770    5.283281    0.082472
   729 C913  c    -17.502439           4.760748   -5.286197    0.081479
   730 C913  c    -17.501172          -4.751177    5.293835    0.086332
   731 C902  c      1.196100          -2.257545    2.749807   -0.115086
   732 C902  c      1.196891           2.261356   -2.746860   -0.119101
   733 C902  c      1.196655          -2.258243   -2.749010   -0.116510
   734 C902  c      1.196437           2.261554    2.747363   -0.121069
   735 C902  c      1.269102           0.001850   -0.000511   -3.719184
   736 C902  c      1.237184          -0.000571    0.001281    3.653583
   737 C902  c      1.239515           0.000688   -0.001238   -3.655529
   738 C902  c      1.270113          -0.001619    0.000604    3.720427
   739 C902  c      1.196724           2.259151    2.748567    0.116771
   740 C902  c      1.196138          -2.260399   -2.748269    0.118109
   741 C902  c      1.196835          -2.260842    2.747340    0.117198
   742 C902  c      1.196583           2.258710   -2.749516    0.115732
   743 C912  c      1.045802          -1.064780    0.432843    0.516674
   744 C912  c      1.082913           0.269007   -1.186745   -0.513373
   745 C912  c      1.083798          -0.269072    1.186744   -0.512128
   746 C912  c      1.043365           1.064134   -0.432350    0.514733
   747 C912  c      1.080348          -0.269900   -1.186314   -0.514959
   748 C912  c      1.086519           0.269027    1.186387   -0.511689
   749 C912  c      1.039049          -1.064364   -0.433721    0.514457
   750 C912  c      1.050803           1.063839    0.432146    0.518298
   751 C912  c      1.212370           0.003158    0.644155   -0.961632
   752 C912  c      1.419474          -0.525123    0.018121    1.283003
   753 C912  c      1.264478           0.004995   -0.682767   -0.925101
   754 C912  c      1.552430           0.613008    0.017036    1.378701
   755 C912  c      1.261503           0.682655   -0.006280   -0.921081
   756 C912  c      1.417558          -0.014004    0.524254    1.281418
   757 C912  c      1.210301          -0.644267   -0.004209   -0.957507
   758 C912  c      1.551894          -0.012966   -0.614014    1.377028
   759 C912  c      1.074412           0.271695    1.187166    0.507147
   760 C912  c      1.052173          -1.065104   -0.431821   -0.518316
   761 C912  c      1.045983           1.064819    0.432674   -0.521553
   762 C912  c      1.086333          -0.270492   -1.186677    0.511119
   763 C912  c      1.048494          -1.065527    0.432001   -0.519128
   764 C912  c      1.049622           1.065454   -0.431758   -0.519875
   765 C912  c      1.079734          -0.271016    1.187732    0.508832
   766 C912  c      1.080246           0.270474   -1.186611    0.507834
   767 C913  c    -17.503880           4.702915   -5.325246   -0.276858
   768 C913  c    -17.505448          -4.706645    5.322455   -0.272480
   769 C913  c    -17.506310           4.703384    5.324277   -0.271768
   770 C913  c    -17.502623          -4.705093   -5.324658   -0.275855
   771 C913  c    -17.424188          -0.044754    0.009331    6.972967
   772 C914  c    -14.306748           0.587704   -0.053228   -4.515003
   773 C913  c    -17.436355          -0.009585    0.058196    6.963667
   774 C914  c    -14.309651           0.041252   -0.586757   -4.515596
   775 C913  c    -17.504308          -4.706771   -5.323197    0.281273
   776 C913  c    -17.500888           4.708357    5.324562    0.276692
   777 C913  c    -17.502414           4.708918   -5.322152    0.276267
   778 C913  c    -17.503093          -4.705532    5.325935    0.279579
   779 C902  c      1.192464          -2.285990    2.731931    0.031272
   780 C902  c      1.190856           2.286103   -2.731817    0.027520
   781 C902  c      1.188010          -2.286697   -2.732245    0.026967
   782 C902  c      1.195621           2.285209    2.731343    0.031264
   783 C902  c      1.380199           0.020711   -0.019654   -3.602782
   784 C902  c      2.115813           0.085522    0.054812    4.377562
   785 C902  c      1.374138           0.020159   -0.026811   -3.596594
   786 C902  c      2.113644          -0.042118   -0.087622    4.376642
   787 C902  c      1.189294           2.287045    2.733192   -0.035535
   788 C902  c      1.196957          -2.286601   -2.731473   -0.031201
   789 C902  c      1.192734          -2.287242    2.732545   -0.032004
   790 C902  c      1.193224           2.286850   -2.732076   -0.034879
   791 H915  c     -1.667838          -0.040179    0.308893    0.245537
   792 H915  c     -1.998423          -0.524693   -0.064608   -0.232432
   793 H915  c     -1.508374          -0.302537   -0.122224   -0.361091
   794 H915  c     -1.828676           0.516219   -0.109937   -0.331335
   795 H915  c     -1.537953           0.630169   -0.210788    0.017287
   796 H915  c     -1.866402           0.040327    0.540443   -0.317220
   797 H915  c     -1.832481          -0.450440   -0.129613    0.066380
   798 H915  c     -1.829185          -0.042842   -0.402172   -0.201707
   799 H915  c     -1.866367          -0.108211   -0.481837    0.369426
   800 H915  c     -1.901280          -0.399058   -0.122273   -0.317835
   801 H915  c     -1.763630           0.357108    0.104747   -0.381795
   802 H915  c     -1.872732           0.143652    0.467485    0.351581
   803 H915  c     -1.806573           0.342749   -0.120057   -0.365252
   804 H915  c     -1.831219          -0.403278    0.109315   -0.339401
   805 H915  c     -1.894362          -0.101393    0.478162    0.382866
   806 H915  c     -1.849672           0.142152   -0.477129    0.340860
   807 H915  c     -1.896921           0.001665    0.544725    0.274644
   808 H915  c     -1.854187          -0.535736   -0.001007   -0.237704
   809 H915  c     -1.898839          -0.004845   -0.547183    0.279673
   810 H915  c     -1.863623           0.537227   -0.000102   -0.241212
   811 H915  c     -1.864134           0.536917    0.001657    0.247084
   812 H915  c     -1.898796           0.008297    0.546235   -0.278284
   813 H915  c     -1.849199          -0.537621    0.000904    0.230210
   814 H915  c     -1.898317           0.002908   -0.546706   -0.279563
   815 H915  c     -1.802453          -0.392418    0.106578    0.376304
   816 H915  c     -1.894492          -0.122001    0.477406   -0.344336
   817 H915  c     -1.885588           0.111783   -0.413498   -0.367366
   818 H915  c     -1.776693           0.405773   -0.137148    0.342148
   819 H915  c     -1.945529          -0.142215   -0.441286   -0.310310
   820 H915  c     -1.846944           0.101853    0.446580   -0.386334
   821 H915  c     -1.823305           0.418134    0.124353    0.358789
   822 H915  c     -1.761876          -0.383840   -0.121612    0.362198
   823 H915  c     -1.921395          -0.117519   -0.494281    0.390722
   824 H915  c     -1.772014          -0.375621   -0.132217   -0.351044
   825 H915  c     -1.772122           0.373600    0.131539   -0.352956
   826 H915  c     -1.920341           0.118824    0.494926    0.388863
   827 H915  c     -1.771203           0.373698   -0.131880   -0.352683
   828 H915  c     -1.773188          -0.376657    0.132935   -0.349479
   829 H915  c     -1.920889          -0.117790    0.494376    0.390393
   830 H915  c     -1.920779           0.119794   -0.495699    0.387981
   831 H915  c     -1.889888          -0.000008    0.544048    0.270288
   832 H915  c     -1.875488          -0.537918   -0.000153   -0.248424
   833 H915  c     -1.890114          -0.000328   -0.543920    0.270494
   834 H915  c     -1.875805           0.537873   -0.000380   -0.248205
   835 H915  c     -1.874080           0.537619   -0.000191    0.246091
   836 H915  c     -1.889661           0.000375    0.543259   -0.269205
   837 H915  c     -1.873011          -0.537659    0.000157    0.245009
   838 H915  c     -1.889768           0.000063   -0.543205   -0.268906
   839 H915  c     -1.773345          -0.373923    0.131172    0.351833
   840 H915  c     -1.922208          -0.118479    0.497857   -0.388465
   841 H915  c     -1.919305           0.117954   -0.494051   -0.390635
   842 H915  c     -1.772983           0.375435   -0.133423    0.349082
   843 H915  c     -1.919519          -0.118212   -0.495584   -0.389815
   844 H915  c     -1.919737           0.117960    0.493585   -0.390601
   845 H915  c     -1.773347           0.375056    0.132133    0.350304
   846 H915  c     -1.773705          -0.373713   -0.130923    0.352257
   847 H915  c     -1.901141          -0.124018   -0.469591    0.368637
   848 H915  c     -1.803897          -0.387347   -0.123344   -0.362344
   849 H915  c     -1.803574           0.387465    0.122895   -0.362461
   850 H915  c     -1.905662           0.122367    0.469968    0.367083
   851 H915  c     -1.806071           0.387117   -0.122837   -0.363726
   852 H915  c     -1.801405          -0.387233    0.122767   -0.361764
   853 H915  c     -1.909671          -0.124119    0.467526    0.365479
   854 H915  c     -1.896154           0.121834   -0.471122    0.371236
   855 H915  c     -1.825796          -0.004838    0.489008    0.291791
   856 H915  c     -1.661593          -0.247589    0.002430   -0.165304
   857 H915  c     -1.772276          -0.003662   -0.503945    0.333232
   858 H915  c     -1.386627           0.268513    0.004099    0.039332
   859 H915  c     -1.777482           0.503815    0.004735    0.336634
   860 H915  c     -1.664857          -0.002024    0.246848   -0.166422
   861 H915  c     -1.829864          -0.490220    0.006104    0.296401
   862 H915  c     -1.387329          -0.003272   -0.269170    0.037967
   863 H915  c     -1.816332          -0.381233    0.124903    0.354917
   864 H915  c     -1.893734          -0.122566    0.473008   -0.371870
   865 H915  c     -1.898418           0.122645   -0.472907   -0.373826
   866 H915  c     -1.802252           0.383745   -0.122587    0.361050
   867 H915  c     -1.896604          -0.122859   -0.473070   -0.372774
   868 H915  c     -1.895231           0.123190    0.472949   -0.372166
   869 H915  c     -1.809227           0.382498    0.125054    0.357762
   870 H915  c     -1.810540          -0.383540   -0.122635    0.357257
   871 Zn172 c    -20.896268          -0.008035   -0.358611   -0.003471
   872 Zn172 c    -20.781843          -0.503436    0.000412    0.296680
   873 Zn172 c    -20.623955           0.561358    0.049004    0.137907
   874 Zn172 c    -20.891013          -0.022013    0.371051    0.000895
   875 Zn172 c    -20.632480           0.393051    0.017987   -0.066457
   876 Zn172 c    -20.860454          -0.104367    0.375472   -0.175133
   877 Zn172 c    -20.614449          -0.490749    0.007769   -0.017653
   878 Zn172 c    -20.746018          -0.074948   -0.160498   -0.249388
   879 Zn172 c    -20.961979           0.000458   -0.243534    0.078347
   880 Zn172 c    -20.557338          -0.515226    0.002585    0.075430
   881 Zn172 c    -20.559244           0.529606    0.002940    0.080336
   882 Zn172 c    -20.961656          -0.000416    0.245466    0.079098
   883 Zn172 c    -20.573602           0.541115    0.000605   -0.123758
   884 Zn172 c    -20.978925          -0.013940    0.268469   -0.038806
   885 Zn172 c    -20.575132          -0.545605   -0.000369   -0.117804
   886 Zn172 c    -20.976992          -0.008726   -0.271611   -0.039846
   887 Zn172 c    -20.878763           0.002626   -0.274288    0.125678
   888 Zn172 c    -20.636507          -0.476471    0.000796    0.099085
   889 Zn172 c    -20.637430           0.476406    0.001337    0.097906
   890 Zn172 c    -20.884537           0.003949    0.280224    0.116018
   891 Zn172 c    -20.651889           0.507623   -0.003194   -0.140244
   892 Zn172 c    -20.901989          -0.001311    0.308063   -0.050608
   893 Zn172 c    -20.657329          -0.513456   -0.005533   -0.149820
   894 Zn172 c    -20.903132          -0.000957   -0.307741   -0.051937
-------------------------------------------------------------------------------

  Total time to end of lattice properties =    1504.1560 s


  Peak dynamic memory used =     148.21 MB 


  Timing analysis for GULP :

--------------------------------------------------------------------------------
  Task / Subroutine                                          Time (Seconds)
--------------------------------------------------------------------------------
  Calculation of reciprocal space energy and derivatives        448.2860
  Calculation of real space energy and derivatives              809.7116
  Calculation of three-body energy and derivatives                2.5379
  Calculation of four-body energy and derivatives                 2.7097
  Calculation of molecules and connectivity                       0.3900
  Calculation of phonons                                         51.7760
  Calculation of scattering                                       0.0000
  Calculation of matrix inversion                               190.3640
  Symmetry generation of equivalent positions                     0.0126
  Global summation overhead                                       0.0026
--------------------------------------------------------------------------------
  Total CPU time                                               1504.1561
--------------------------------------------------------------------------------


  Dump file written as fit1.res                                                


  Job Finished at 07:52.15 18th May        2016                               

