********************************************************************************
*                       GENERAL UTILITY LATTICE PROGRAM                        *
*                                 Julian Gale                                  *
*                      Nanochemistry Research Institute                        *
*                           Department of Chemistry                            *
*                    Curtin University, Western Australia                      *
********************************************************************************
* Version = 4.4.0 * Last modified = 31st March 2015                            *
********************************************************************************
*  optimise     - perform optimisation run                                     *
*  conv         - constant volume calculation                                  *
*  property     - calculate properties for final geometry                      *
*  phonon       - calculate phonons for final geometry                         *
*  potential    - calculate electrostatic site potentials                      *
*  molmec       - molecule option activated, Coulomb subtract 1-2/1-3 terms    *
*  fix_molecule - fix atoms of molecule as at the start of the run             *
*  compare      - compare initial and final structures                         *
********************************************************************************

  Job Started  at 18:12.02 27th May        2016                               

  Number of CPUs =     1


  Total number of configurations input =   1

********************************************************************************
*  Input for Configuration =   1                                               *
********************************************************************************

  Formula = Ti180O446H84C160Zn24                                        

  Number of irreducible atoms/shells =     894


  Total number atoms/shells =     894

  Dimensionality = 3               :  Bulk   



  Cartesian lattice vectors (Angstroms) :

       17.724000    0.000000    0.000000
        0.000000   19.461000    0.000000
        0.000000    0.000000  114.868000

  Cell parameters (Angstroms/Degrees):

  a =      17.7240    alpha =  90.0000
  b =      19.4610    beta  =  90.0000
  c =     114.8680    gamma =  90.0000

  Initial cell volume =       39621.047527 Angs**3

  Temperature of configuration =  0.000     K 

  Pressure of configuration =         0.000 GPa 

  Fractional coordinates of asymmetric unit :

--------------------------------------------------------------------------------
   No.  Atomic       x           y          z         Charge      Occupancy
        Label      (Frac)      (Frac)     (Frac)        (e)         (Frac)  
--------------------------------------------------------------------------------
      1 Ti    c    0.320000    0.733333    0.339270     2.43600    1.000000    
      2 Ti    c    0.148778 *  0.399221 *  0.341318 *   2.43600    1.000000    
      3 Ti    c    0.981989 *  0.399764 *  0.341318 *   2.43600    1.000000    
      4 Ti    c    0.815061 *  0.399883 *  0.341390 *   2.43600    1.000000    
      5 Ti    c    0.650271 *  0.399385 *  0.339783 *   2.43600    1.000000    
      6 Ti    c    0.481166 *  0.400049 *  0.340046 *   2.43600    1.000000    
      7 Ti    c    0.316097 *  0.399422 *  0.341364 *   2.43600    1.000000    
      8 Ti    c    0.148629 *  0.065834 *  0.340817 *   2.43600    1.000000    
      9 Ti    c    0.982181 *  0.065884 *  0.341272 *   2.43600    1.000000    
     10 Ti    c    0.815556 *  0.066208 *  0.341290 *   2.43600    1.000000    
     11 Ti    c    0.648910 *  0.065734 *  0.341215 *   2.43600    1.000000    
     12 Ti    c    0.481852 *  0.065905 *  0.341232 *   2.43600    1.000000    
     13 Ti    c    0.315433 *  0.065827 *  0.341249 *   2.43600    1.000000    
     14 Ti    c    0.143895 *  0.733345 *  0.338644 *   2.43600    1.000000    
     15 Ti    c    0.981358 *  0.733160 *  0.341402 *   2.43600    1.000000    
     16 Ti    c    0.815517 *  0.732688 *  0.341383 *   2.43600    1.000000    
     17 Ti    c    0.649132 *  0.732007 *  0.341380 *   2.43600    1.000000    
     18 Ti    c    0.483028 *  0.731826 *  0.341465 *   2.43600    1.000000    
     19 Ti    c    0.065421 *  0.232260 *  0.339123 *   2.43600    1.000000    
     20 Ti    c    0.898496 *  0.232895 *  0.339149 *   2.43600    1.000000    
     21 Ti    c    0.731740 *  0.233370 *  0.339073 *   2.43600    1.000000    
     22 Ti    c    0.899623 *  0.899334 *  0.339139 *   2.43600    1.000000    
     23 Ti    c    0.565074 *  0.898313 *  0.339147 *   2.43600    1.000000    
     24 Ti    c    0.397829 *  0.899334 *  0.339163 *   2.43600    1.000000    
     25 Ti    c    0.898557 *  0.566382 *  0.339027 *   2.43600    1.000000    
     26 Ti    c    0.565471 *  0.564911 *  0.340450 *   2.43600    1.000000    
     27 Ti    c    0.398965 *  0.567024 *  0.338874 *   2.43600    1.000000    
     28 Ti    c    0.232489 *  0.231906 *  0.339091 *   2.43600    1.000000    
     29 Ti    c    0.565526 *  0.230704 *  0.339374 *   2.43600    1.000000    
     30 Ti    c    0.399293 *  0.233499 *  0.339115 *   2.43600    1.000000    
     31 Ti    c    0.231008 *  0.900872 *  0.340604 *   2.43600    1.000000    
     32 Ti    c    0.066097 *  0.899792 *  0.340678 *   2.43600    1.000000    
     33 Ti    c    0.732388 *  0.899192 *  0.339185 *   2.43600    1.000000    
     34 Ti    c    0.232398 *  0.563901 *  0.338658 *   2.43600    1.000000    
     35 Ti    c    0.065450 *  0.567282 *  0.339043 *   2.43600    1.000000    
     36 Ti    c    0.731965 *  0.566516 *  0.338835 *   2.43600    1.000000    
     37 Ti    c    0.315479 *  0.566110 *  0.311582 *   2.43600    1.000000    
     38 Ti    c    0.148826 *  0.232774 *  0.311972 *   2.43600    1.000000    
     39 Ti    c    0.982073 *  0.232835 *  0.311972 *   2.43600    1.000000    
     40 Ti    c    0.815535 *  0.232696 *  0.311896 *   2.43600    1.000000    
     41 Ti    c    0.648752 *  0.232492 *  0.312019 *   2.43600    1.000000    
     42 Ti    c    0.482236 *  0.232494 *  0.312026 *   2.43600    1.000000    
     43 Ti    c    0.315480 *  0.232715 *  0.311884 *   2.43600    1.000000    
     44 Ti    c    0.148719 *  0.899652 *  0.313396 *   2.43600    1.000000    
     45 Ti    c    0.982303 *  0.899525 *  0.312453 *   2.43600    1.000000    
     46 Ti    c    0.815387 *  0.899337 *  0.311983 *   2.43600    1.000000    
     47 Ti    c    0.648825 *  0.899122 *  0.312014 *   2.43600    1.000000    
     48 Ti    c    0.482272 *  0.899194 *  0.311931 *   2.43600    1.000000    
     49 Ti    c    0.315264 *  0.899498 *  0.312457 *   2.43600    1.000000    
     50 Ti    c    0.148602 *  0.566058 *  0.311741 *   2.43600    1.000000    
     51 Ti    c    0.982032 *  0.566022 *  0.311833 *   2.43600    1.000000    
     52 Ti    c    0.815656 *  0.566200 *  0.311745 *   2.43600    1.000000    
     53 Ti    c    0.648491 *  0.565740 *  0.312421 *   2.43600    1.000000    
     54 Ti    c    0.482598 *  0.565705 *  0.312387 *   2.43600    1.000000    
     55 Ti    c    0.400477 *  0.732358 *  0.312184 *   2.43600    1.000000    
     56 Ti    c    0.231972 *  0.399381 *  0.312708 *   2.43600    1.000000    
     57 Ti    c    0.065501 *  0.399227 *  0.312733 *   2.43600    1.000000    
     58 Ti    c    0.899035 *  0.399443 *  0.312734 *   2.43600    1.000000    
     59 Ti    c    0.733031 *  0.399022 *  0.312380 *   2.43600    1.000000    
     60 Ti    c    0.565395 *  0.399031 *  0.312396 *   2.43600    1.000000    
     61 Ti    c    0.398083 *  0.398831 *  0.312433 *   2.43600    1.000000    
     62 Ti    c    0.232282 *  0.066192 *  0.312722 *   2.43600    1.000000    
     63 Ti    c    0.065331 *  0.066219 *  0.312732 *   2.43600    1.000000    
     64 Ti    c    0.898755 *  0.066093 *  0.312768 *   2.43600    1.000000    
     65 Ti    c    0.732135 *  0.065827 *  0.312746 *   2.43600    1.000000    
     66 Ti    c    0.565454 *  0.065815 *  0.312734 *   2.43600    1.000000    
     67 Ti    c    0.398823 *  0.065976 *  0.312744 *   2.43600    1.000000    
     68 Ti    c    0.232288 *  0.732954 *  0.312245 *   2.43600    1.000000    
     69 Ti    c    0.063567 *  0.732858 *  0.312068 *   2.43600    1.000000    
     70 Ti    c    0.898287 *  0.732814 *  0.312747 *   2.43600    1.000000    
     71 Ti    c    0.732147 *  0.732408 *  0.312780 *   2.43600    1.000000    
     72 Ti    c    0.565990 *  0.732382 *  0.312822 *   2.43600    1.000000    
     73 Ti    c    0.315502 *  0.732646 *  0.284597 *   2.43600    1.000000    
     74 Ti    c    0.148754 *  0.399355 *  0.284855 *   2.43600    1.000000    
     75 Ti    c    0.982210 *  0.399346 *  0.284866 *   2.43600    1.000000    
     76 Ti    c    0.815649 *  0.399304 *  0.284803 *   2.43600    1.000000    
     77 Ti    c    0.648813 *  0.399270 *  0.284665 *   2.43600    1.000000    
     78 Ti    c    0.482139 *  0.399265 *  0.284676 *   2.43600    1.000000    
     79 Ti    c    0.315353 *  0.399314 *  0.284805 *   2.43600    1.000000    
     80 Ti    c    0.148797 *  0.065970 *  0.284976 *   2.43600    1.000000    
     81 Ti    c    0.982145 *  0.065962 *  0.284998 *   2.43600    1.000000    
     82 Ti    c    0.815455 *  0.065947 *  0.284964 *   2.43600    1.000000    
     83 Ti    c    0.648805 *  0.065949 *  0.284925 *   2.43600    1.000000    
     84 Ti    c    0.482153 *  0.065907 *  0.284948 *   2.43600    1.000000    
     85 Ti    c    0.315472 *  0.065928 *  0.284988 *   2.43600    1.000000    
     86 Ti    c    0.148793 *  0.732745 *  0.284517 *   2.43600    1.000000    
     87 Ti    c    0.981813 *  0.732730 *  0.284746 *   2.43600    1.000000    
     88 Ti    c    0.815333 *  0.732628 *  0.284944 *   2.43600    1.000000    
     89 Ti    c    0.648834 *  0.732574 *  0.284934 *   2.43600    1.000000    
     90 Ti    c    0.482494 *  0.732603 *  0.284787 *   2.43600    1.000000    
     91 Ti    c    0.399286 *  0.565926 *  0.284870 *   2.43600    1.000000    
     92 Ti    c    0.232103 *  0.232595 *  0.284893 *   2.43600    1.000000    
     93 Ti    c    0.065479 *  0.232656 *  0.284914 *   2.43600    1.000000    
     94 Ti    c    0.898858 *  0.232620 *  0.284898 *   2.43600    1.000000    
     95 Ti    c    0.732106 *  0.232649 *  0.284895 *   2.43600    1.000000    
     96 Ti    c    0.565472 *  0.232614 *  0.284917 *   2.43600    1.000000    
     97 Ti    c    0.398861 *  0.232639 *  0.284899 *   2.43600    1.000000    
     98 Ti    c    0.231693 *  0.899289 *  0.285430 *   2.43600    1.000000    
     99 Ti    c    0.065873 *  0.899330 *  0.285436 *   2.43600    1.000000    
    100 Ti    c    0.899137 *  0.899323 *  0.285102 *   2.43600    1.000000    
    101 Ti    c    0.732198 *  0.899295 *  0.284960 *   2.43600    1.000000    
    102 Ti    c    0.565472 *  0.899259 *  0.284944 *   2.43600    1.000000    
    103 Ti    c    0.398438 *  0.899237 *  0.285071 *   2.43600    1.000000    
    104 Ti    c    0.232132 *  0.565984 *  0.284699 *   2.43600    1.000000    
    105 Ti    c    0.065360 *  0.566097 *  0.284752 *   2.43600    1.000000    
    106 Ti    c    0.898722 *  0.565925 *  0.284796 *   2.43600    1.000000    
    107 Ti    c    0.731791 *  0.565865 *  0.284942 *   2.43600    1.000000    
    108 Ti    c    0.565551 *  0.565838 *  0.285096 *   2.43600    1.000000    
    109 Ti    c    0.315594 *  0.565971 *  0.257725 *   2.43600    1.000000    
    110 Ti    c    0.148806 *  0.232645 *  0.257860 *   2.43600    1.000000    
    111 Ti    c    0.982150 *  0.232635 *  0.257860 *   2.43600    1.000000    
    112 Ti    c    0.815481 *  0.232624 *  0.257846 *   2.43600    1.000000    
    113 Ti    c    0.648800 *  0.232610 *  0.257845 *   2.43600    1.000000    
    114 Ti    c    0.482147 *  0.232615 *  0.257848 *   2.43600    1.000000    
    115 Ti    c    0.315483 *  0.232634 *  0.257845 *   2.43600    1.000000    
    116 Ti    c    0.148809 *  0.899297 *  0.258236 *   2.43600    1.000000    
    117 Ti    c    0.982325 *  0.899302 *  0.258125 *   2.43600    1.000000    
    118 Ti    c    0.815587 *  0.899311 *  0.257967 *   2.43600    1.000000    
    119 Ti    c    0.648814 *  0.899312 *  0.257905 *   2.43600    1.000000    
    120 Ti    c    0.482024 *  0.899298 *  0.257938 *   2.43600    1.000000    
    121 Ti    c    0.315277 *  0.899294 *  0.258096 *   2.43600    1.000000    
    122 Ti    c    0.148803 *  0.565980 *  0.257691 *   2.43600    1.000000    
    123 Ti    c    0.982083 *  0.565985 *  0.257738 *   2.43600    1.000000    
    124 Ti    c    0.815365 *  0.565958 *  0.257811 *   2.43600    1.000000    
    125 Ti    c    0.648737 *  0.565954 *  0.257914 *   2.43600    1.000000    
    126 Ti    c    0.482262 *  0.565966 *  0.257879 *   2.43600    1.000000    
    127 Ti    c    0.398957 *  0.732658 *  0.256964 *   2.43600    1.000000    
    128 Ti    c    0.232102 *  0.399304 *  0.257009 *   2.43600    1.000000    
    129 Ti    c    0.065470 *  0.399299 *  0.257032 *   2.43600    1.000000    
    130 Ti    c    0.898858 *  0.399306 *  0.257017 *   2.43600    1.000000    
    131 Ti    c    0.732218 *  0.399284 *  0.256973 *   2.43600    1.000000    
    132 Ti    c    0.565477 *  0.399278 *  0.256944 *   2.43600    1.000000    
    133 Ti    c    0.398747 *  0.399294 *  0.256969 *   2.43600    1.000000    
    134 Ti    c    0.232125 *  0.065967 *  0.257181 *   2.43600    1.000000    
    135 Ti    c    0.065485 *  0.065951 *  0.257188 *   2.43600    1.000000    
    136 Ti    c    0.898853 *  0.065937 *  0.257163 *   2.43600    1.000000    
    137 Ti    c    0.732171 *  0.065944 *  0.257130 *   2.43600    1.000000    
    138 Ti    c    0.565452 *  0.065930 *  0.257124 *   2.43600    1.000000    
    139 Ti    c    0.398760 *  0.065930 *  0.257150 *   2.43600    1.000000    
    140 Ti    c    0.232171 *  0.732640 *  0.256895 *   2.43600    1.000000    
    141 Ti    c    0.065316 *  0.732659 *  0.256942 *   2.43600    1.000000    
    142 Ti    c    0.898658 *  0.732663 *  0.257043 *   2.43600    1.000000    
    143 Ti    c    0.732129 *  0.732646 *  0.257103 *   2.43600    1.000000    
    144 Ti    c    0.565593 *  0.732667 *  0.257059 *   2.43600    1.000000    
    145 Ti    c    0.398941 *  0.566004 *  0.230626 *   2.43600    1.000000    
    146 Ti    c    0.315498 *  0.732755 *  0.228419 *   2.43600    1.000000    
    147 Ti    c    0.232131 *  0.232569 *  0.230685 *   2.43600    1.000000    
    148 Ti    c    0.148797 *  0.399276 *  0.228479 *   2.43600    1.000000    
    149 Ti    c    0.065479 *  0.232578 *  0.230692 *   2.43600    1.000000    
    150 Ti    c    0.982137 *  0.399276 *  0.228484 *   2.43600    1.000000    
    151 Ti    c    0.898826 *  0.232585 *  0.230685 *   2.43600    1.000000    
    152 Ti    c    0.815481 *  0.399280 *  0.228463 *   2.43600    1.000000    
    153 Ti    c    0.732152 *  0.232581 *  0.230673 *   2.43600    1.000000    
    154 Ti    c    0.648823 *  0.399279 *  0.228432 *   2.43600    1.000000    
    155 Ti    c    0.565472 *  0.232590 *  0.230670 *   2.43600    1.000000    
    156 Ti    c    0.482153 *  0.399280 *  0.228428 *   2.43600    1.000000    
    157 Ti    c    0.398801 *  0.232589 *  0.230676 *   2.43600    1.000000    
    158 Ti    c    0.315472 *  0.399281 *  0.228456 *   2.43600    1.000000    
    159 Ti    c    0.232030 *  0.899319 *  0.230941 *   2.43600    1.000000    
    160 Ti    c    0.148799 *  0.065874 *  0.228654 *   2.43600    1.000000    
    161 Ti    c    0.065555 *  0.899312 *  0.230956 *   2.43600    1.000000    
    162 Ti    c    0.982186 *  0.065877 *  0.228644 *   2.43600    1.000000    
    163 Ti    c    0.898958 *  0.899324 *  0.230851 *   2.43600    1.000000    
    164 Ti    c    0.815526 *  0.065890 *  0.228609 *   2.43600    1.000000    
    165 Ti    c    0.732218 *  0.899325 *  0.230761 *   2.43600    1.000000    
    166 Ti    c    0.648816 *  0.065898 *  0.228586 *   2.43600    1.000000    
    167 Ti    c    0.565431 *  0.899313 *  0.230746 *   2.43600    1.000000    
    168 Ti    c    0.482102 *  0.065888 *  0.228601 *   2.43600    1.000000    
    169 Ti    c    0.398656 *  0.899321 *  0.230821 *   2.43600    1.000000    
    170 Ti    c    0.315425 *  0.065879 *  0.228636 *   2.43600    1.000000    
    171 Ti    c    0.232192 *  0.566018 *  0.230547 *   2.43600    1.000000    
    172 Ti    c    0.148781 *  0.732767 *  0.228406 *   2.43600    1.000000    
    173 Ti    c    0.065426 *  0.566018 *  0.230556 *   2.43600    1.000000    
    174 Ti    c    0.982093 *  0.732763 *  0.228475 *   2.43600    1.000000    
    175 Ti    c    0.898715 *  0.566003 *  0.230612 *   2.43600    1.000000    
    176 Ti    c    0.815451 *  0.732741 *  0.228546 *   2.43600    1.000000    
    177 Ti    c    0.732060 *  0.566003 *  0.230684 *   2.43600    1.000000    
    178 Ti    c    0.648831 *  0.732729 *  0.228550 *   2.43600    1.000000    
    179 Ti    c    0.565517 *  0.566000 *  0.230707 *   2.43600    1.000000    
    180 Ti    c    0.482189 *  0.732741 *  0.228490 *   2.43600    1.000000    
    181 O2    c    0.394513 *  0.730320 *  0.349535 *  -1.21800    1.000000    
    182 O2    c    0.232704 *  0.402860 *  0.350043 *  -1.21800    1.000000    
    183 O2    c    0.065529 *  0.400500 *  0.350067 *  -1.21800    1.000000    
    184 O2    c    0.898299 *  0.400441 *  0.350117 *  -1.21800    1.000000    
    185 O2    c    0.727968 *  0.400569 *  0.349766 *  -1.21800    1.000000    
    186 O3    c    0.567060 *  0.231050 *  0.356041 *  -0.33800    1.000000    
    187 H22   c    0.566896 *  0.199963 *  0.362593 *   0.12000    1.000000    
    188 O2    c    0.402454 *  0.400515 *  0.349818 *  -1.21800    1.000000    
    189 O2    c    0.231460 *  0.067893 *  0.349791 *  -1.21800    1.000000    
    190 O2    c    0.066165 *  0.069296 *  0.349818 *  -1.21800    1.000000    
    191 O2    c    0.898653 *  0.068620 *  0.350044 *  -1.21800    1.000000    
    192 O2    c    0.731985 *  0.065829 *  0.350017 *  -1.21800    1.000000    
    193 O2    c    0.565425 *  0.067956 *  0.349938 *  -1.21800    1.000000    
    194 O2    c    0.398876 *  0.066852 *  0.350034 *  -1.21800    1.000000    
    195 O3    c    0.231066 *  0.733401 *  0.349823 *  -0.33800    1.000000    
    196 H22   c    0.227202 *  0.746123 *  0.357947 *   0.12000    1.000000    
    197 O2    c    0.070849 *  0.728002 *  0.349164 *  -1.21800    1.000000    
    198 O2    c    0.898896 *  0.730260 *  0.350224 *  -1.21800    1.000000    
    199 O2    c    0.732333 *  0.733067 *  0.350142 *  -1.21800    1.000000    
    200 O2    c    0.565590 *  0.733310 *  0.350207 *  -1.21800    1.000000    
    201 O2    c    0.149052 *  0.172930 *  0.340291 *  -1.21800    1.000000    
    202 O2    c    0.981440 *  0.173110 *  0.340503 *  -1.21800    1.000000    
    203 O2    c    0.814707 *  0.172933 *  0.340512 *  -1.21800    1.000000    
    204 O2    c    0.650207 *  0.172089 *  0.340250 *  -1.21800    1.000000    
    205 O2    c    0.480976 *  0.172340 *  0.340258 *  -1.21800    1.000000    
    206 O2    c    0.316503 *  0.173096 *  0.340553 *  -1.21800    1.000000    
    207 O2    c    0.150964 *  0.831022 *  0.338684 *  -1.21800    1.000000    
    208 O2    c    0.979974 *  0.835971 *  0.340474 *  -1.21800    1.000000    
    209 O2    c    0.815684 *  0.838327 *  0.340703 *  -1.21800    1.000000    
    210 O2    c    0.648793 *  0.838315 *  0.340621 *  -1.21800    1.000000    
    211 O2    c    0.480854 *  0.837508 *  0.340798 *  -1.21800    1.000000    
    212 O2    c    0.316671 *  0.833733 *  0.340190 *  -1.21800    1.000000    
    213 O2    c    0.982330 *  0.505913 *  0.340501 *  -1.21800    1.000000    
    214 O2    c    0.477281 *  0.502001 *  0.338889 *  -1.21800    1.000000    
    215 O2    c    0.316260 *  0.506315 *  0.340549 *  -1.21800    1.000000    
    216 O2    c    0.148259 *  0.506814 *  0.340519 *  -1.21800    1.000000    
    217 O2    c    0.815388 *  0.505120 *  0.340586 *  -1.21800    1.000000    
    218 O2    c    0.653340 *  0.501407 *  0.338882 *  -1.21800    1.000000    
    219 O2    c    0.312515 *  0.629147 *  0.340498 *  -1.21800    1.000000    
    220 O2    c    0.149450 *  0.293970 *  0.340707 *  -1.21800    1.000000    
    221 O2    c    0.982129 *  0.294103 *  0.340645 *  -1.21800    1.000000    
    222 O2    c    0.814835 *  0.294230 *  0.340842 *  -1.21800    1.000000    
    223 O2    c    0.647522 *  0.295797 *  0.340422 *  -1.21800    1.000000    
    224 O2    c    0.483514 *  0.295966 *  0.340530 *  -1.21800    1.000000    
    225 O2    c    0.315613 *  0.294355 *  0.340842 *  -1.21800    1.000000    
    226 O2    c    0.979372 *  0.961728 *  0.340370 *  -1.21800    1.000000    
    227 O2    c    0.482430 *  0.959340 *  0.340682 *  -1.21800    1.000000    
    228 O2    c    0.318068 *  0.960715 *  0.340412 *  -1.21800    1.000000    
    229 O2    c    0.152277 *  0.629009 *  0.340159 *  -1.21800    1.000000    
    230 O2    c    0.982314 *  0.626765 *  0.340608 *  -1.21800    1.000000    
    231 O2    c    0.815433 *  0.626590 *  0.340548 *  -1.21800    1.000000    
    232 O2    c    0.650144 *  0.626841 *  0.340559 *  -1.21800    1.000000    
    233 O2    c    0.480040 *  0.627288 *  0.340663 *  -1.21800    1.000000    
    234 O2    c    0.148928 *  0.964181 *  0.338865 *  -1.21800    1.000000    
    235 O2    c    0.815326 *  0.959990 *  0.340667 *  -1.21800    1.000000    
    236 O2    c    0.648288 *  0.959589 *  0.340626 *  -1.21800    1.000000    
    237 O2    c    0.401899 *  0.731223 *  0.328813 *  -1.21800    1.000000    
    238 O2    c    0.232347 *  0.400577 *  0.329404 *  -1.21800    1.000000    
    239 O2    c    0.065881 *  0.399607 *  0.329382 *  -1.21800    1.000000    
    240 O2    c    0.898818 *  0.399570 *  0.329405 *  -1.21800    1.000000    
    241 O2    c    0.734440 *  0.396658 *  0.329003 *  -1.21800    1.000000    
    242 O2    c    0.565229 *  0.396644 *  0.329479 *  -1.21800    1.000000    
    243 O2    c    0.396694 *  0.396922 *  0.329076 *  -1.21800    1.000000    
    244 O2    c    0.233994 *  0.069307 *  0.329162 *  -1.21800    1.000000    
    245 O2    c    0.063981 *  0.069298 *  0.329160 *  -1.21800    1.000000    
    246 O2    c    0.897678 *  0.066831 *  0.329323 *  -1.21800    1.000000    
    247 O2    c    0.731999 *  0.065512 *  0.329334 *  -1.21800    1.000000    
    248 O2    c    0.565429 *  0.065639 *  0.329320 *  -1.21800    1.000000    
    249 O2    c    0.399529 *  0.065909 *  0.329305 *  -1.21800    1.000000    
    250 O2    c    0.233616 *  0.729274 *  0.329897 *  -1.21800    1.000000    
    251 O2    c    0.060760 *  0.729087 *  0.328557 *  -1.21800    1.000000    
    252 O2    c    0.897769 *  0.731807 *  0.329402 *  -1.21800    1.000000    
    253 O2    c    0.732269 *  0.732363 *  0.329413 *  -1.21800    1.000000    
    254 O2    c    0.565488 *  0.733257 *  0.329485 *  -1.21800    1.000000    
    255 O2    c    0.396079 *  0.568204 *  0.322687 *  -1.21800    1.000000    
    256 O2    c    0.232657 *  0.233687 *  0.322819 *  -1.21800    1.000000    
    257 O2    c    0.065450 *  0.233652 *  0.322830 *  -1.21800    1.000000    
    258 O2    c    0.898382 *  0.233614 *  0.322853 *  -1.21800    1.000000    
    259 O2    c    0.732292 *  0.233940 *  0.322818 *  -1.21800    1.000000    
    260 O2    c    0.565473 *  0.232905 *  0.322944 *  -1.21800    1.000000    
    261 O2    c    0.398655 *  0.234137 *  0.322840 *  -1.21800    1.000000    
    262 O2    c    0.235318 *  0.898812 *  0.323471 *  -1.21800    1.000000    
    263 O2    c    0.062669 *  0.898287 *  0.323518 *  -1.21800    1.000000    
    264 O2    c    0.897103 *  0.898961 *  0.322887 *  -1.21800    1.000000    
    265 O2    c    0.731862 *  0.899233 *  0.322894 *  -1.21800    1.000000    
    266 O2    c    0.565283 *  0.898617 *  0.322878 *  -1.21800    1.000000    
    267 O2    c    0.400499 *  0.898350 *  0.322918 *  -1.21800    1.000000    
    268 O2    c    0.232338 *  0.565672 *  0.322554 *  -1.21800    1.000000    
    269 O2    c    0.066024 *  0.567011 *  0.322770 *  -1.21800    1.000000    
    270 O2    c    0.899099 *  0.566080 *  0.322747 *  -1.21800    1.000000    
    271 O2    c    0.734235 *  0.566910 *  0.322656 *  -1.21800    1.000000    
    272 O2    c    0.565140 *  0.566728 *  0.323338 *  -1.21800    1.000000    
    273 O2    c    0.315041 *  0.667871 *  0.312337 *  -1.21800    1.000000    
    274 O2    c    0.315418 *  0.465048 *  0.312230 *  -1.21800    1.000000    
    275 O2    c    0.148952 *  0.334231 *  0.312430 *  -1.21800    1.000000    
    276 O2    c    0.148921 *  0.132084 *  0.312303 *  -1.21800    1.000000    
    277 O2    c    0.982187 *  0.334184 *  0.312407 *  -1.21800    1.000000    
    278 O2    c    0.981636 *  0.132137 *  0.312278 *  -1.21800    1.000000    
    279 O2    c    0.816046 *  0.333837 *  0.312138 *  -1.21800    1.000000    
    280 O2    c    0.815057 *  0.131851 *  0.312378 *  -1.21800    1.000000    
    281 O2    c    0.648619 *  0.334132 *  0.312403 *  -1.21800    1.000000    
    282 O2    c    0.648752 *  0.131604 *  0.312435 *  -1.21800    1.000000    
    283 O2    c    0.482289 *  0.334122 *  0.312379 *  -1.21800    1.000000    
    284 O2    c    0.482287 *  0.131694 *  0.312408 *  -1.21800    1.000000    
    285 O2    c    0.314918 *  0.334002 *  0.312188 *  -1.21800    1.000000    
    286 O2    c    0.316143 *  0.132067 *  0.312259 *  -1.21800    1.000000    
    287 O2    c    0.148933 *  0.001005 *  0.312641 *  -1.21800    1.000000    
    288 O2    c    0.149054 *  0.796224 *  0.312950 *  -1.21800    1.000000    
    289 O2    c    0.981938 *  0.000841 *  0.312425 *  -1.21800    1.000000    
    290 O2    c    0.981195 *  0.797873 *  0.312152 *  -1.21800    1.000000    
    291 O2    c    0.815222 *  0.000602 *  0.312363 *  -1.21800    1.000000    
    292 O2    c    0.814986 *  0.797978 *  0.312388 *  -1.21800    1.000000    
    293 O2    c    0.648654 *  0.000348 *  0.312415 *  -1.21800    1.000000    
    294 O2    c    0.648893 *  0.797936 *  0.312436 *  -1.21800    1.000000    
    295 O2    c    0.482204 *  0.000330 *  0.312353 *  -1.21800    1.000000    
    296 O2    c    0.482776 *  0.797867 *  0.312147 *  -1.21800    1.000000    
    297 O2    c    0.315824 *  0.000643 *  0.312403 *  -1.21800    1.000000    
    298 O2    c    0.315708 *  0.796565 *  0.312714 *  -1.21800    1.000000    
    299 O2    c    0.149276 *  0.667814 *  0.312502 *  -1.21800    1.000000    
    300 O2    c    0.148812 *  0.465191 *  0.312373 *  -1.21800    1.000000    
    301 O2    c    0.981247 *  0.666646 *  0.311926 *  -1.21800    1.000000    
    302 O2    c    0.982555 *  0.465061 *  0.312412 *  -1.21800    1.000000    
    303 O2    c    0.815571 *  0.667137 *  0.312253 *  -1.21800    1.000000    
    304 O2    c    0.815732 *  0.464802 *  0.312250 *  -1.21800    1.000000    
    305 O2    c    0.648820 *  0.667000 *  0.312508 *  -1.21800    1.000000    
    306 O2    c    0.648609 *  0.463798 *  0.312610 *  -1.21800    1.000000    
    307 O2    c    0.482802 *  0.666782 *  0.312211 *  -1.21800    1.000000    
    308 O2    c    0.481929 *  0.464050 *  0.312587 *  -1.21800    1.000000    
    309 O2    c    0.399860 *  0.565840 *  0.301447 *  -1.21800    1.000000    
    310 O2    c    0.232025 *  0.232924 *  0.301432 *  -1.21800    1.000000    
    311 O2    c    0.065495 *  0.233234 *  0.301461 *  -1.21800    1.000000    
    312 O2    c    0.898884 *  0.232835 *  0.301437 *  -1.21800    1.000000    
    313 O2    c    0.731789 *  0.232963 *  0.301456 *  -1.21800    1.000000    
    314 O2    c    0.565492 *  0.233080 *  0.301509 *  -1.21800    1.000000    
    315 O2    c    0.399213 *  0.233188 *  0.301460 *  -1.21800    1.000000    
    316 O2    c    0.231065 *  0.897897 *  0.302076 *  -1.21800    1.000000    
    317 O2    c    0.066919 *  0.898504 *  0.302069 *  -1.21800    1.000000    
    318 O2    c    0.899311 *  0.899502 *  0.301607 *  -1.21800    1.000000    
    319 O2    c    0.732007 *  0.899294 *  0.301499 *  -1.21800    1.000000    
    320 O2    c    0.565636 *  0.899396 *  0.301482 *  -1.21800    1.000000    
    321 O2    c    0.397876 *  0.898478 *  0.301627 *  -1.21800    1.000000    
    322 O2    c    0.231865 *  0.566828 *  0.301266 *  -1.21800    1.000000    
    323 O2    c    0.065604 *  0.566420 *  0.301345 *  -1.21800    1.000000    
    324 O2    c    0.898867 *  0.565385 *  0.301328 *  -1.21800    1.000000    
    325 O2    c    0.731052 *  0.565240 *  0.301479 *  -1.21800    1.000000    
    326 O2    c    0.565590 *  0.564654 *  0.301746 *  -1.21800    1.000000    
    327 O2    c    0.398373 *  0.732343 *  0.295484 *  -1.21800    1.000000    
    328 O2    c    0.232110 *  0.399745 *  0.295664 *  -1.21800    1.000000    
    329 O2    c    0.065582 *  0.399545 *  0.295702 *  -1.21800    1.000000    
    330 O2    c    0.898939 *  0.399622 *  0.295663 *  -1.21800    1.000000    
    331 O2    c    0.731786 *  0.399335 *  0.295549 *  -1.21800    1.000000    
    332 O2    c    0.565427 *  0.399399 *  0.295556 *  -1.21800    1.000000    
    333 O2    c    0.399093 *  0.399374 *  0.295570 *  -1.21800    1.000000    
    334 O2    c    0.232202 *  0.066164 *  0.295749 *  -1.21800    1.000000    
    335 O2    c    0.065534 *  0.066235 *  0.295753 *  -1.21800    1.000000    
    336 O2    c    0.898594 *  0.066237 *  0.295743 *  -1.21800    1.000000    
    337 O2    c    0.731921 *  0.066084 *  0.295735 *  -1.21800    1.000000    
    338 O2    c    0.565532 *  0.066116 *  0.295734 *  -1.21800    1.000000    
    339 O2    c    0.399037 *  0.066100 *  0.295736 *  -1.21800    1.000000    
    340 O2    c    0.231992 *  0.732581 *  0.295490 *  -1.21800    1.000000    
    341 O2    c    0.066182 *  0.732381 *  0.295431 *  -1.21800    1.000000    
    342 O2    c    0.898850 *  0.732585 *  0.295634 *  -1.21800    1.000000    
    343 O2    c    0.731944 *  0.732447 *  0.295736 *  -1.21800    1.000000    
    344 O2    c    0.565415 *  0.732384 *  0.295702 *  -1.21800    1.000000    
    345 O2    c    0.315584 *  0.501356 *  0.284912 *  -1.21800    1.000000    
    346 O2    c    0.315660 *  0.630688 *  0.284863 *  -1.21800    1.000000    
    347 O2    c    0.148812 *  0.167982 *  0.284899 *  -1.21800    1.000000    
    348 O2    c    0.148874 *  0.297650 *  0.284872 *  -1.21800    1.000000    
    349 O2    c    0.982163 *  0.167964 *  0.284899 *  -1.21800    1.000000    
    350 O2    c    0.982162 *  0.297614 *  0.284876 *  -1.21800    1.000000    
    351 O2    c    0.815371 *  0.167961 *  0.284921 *  -1.21800    1.000000    
    352 O2    c    0.815452 *  0.297535 *  0.284871 *  -1.21800    1.000000    
    353 O2    c    0.648718 *  0.167916 *  0.284913 *  -1.21800    1.000000    
    354 O2    c    0.648711 *  0.297550 *  0.284845 *  -1.21800    1.000000    
    355 O2    c    0.482204 *  0.167912 *  0.284920 *  -1.21800    1.000000    
    356 O2    c    0.482193 *  0.297574 *  0.284839 *  -1.21800    1.000000    
    357 O2    c    0.315601 *  0.167987 *  0.284932 *  -1.21800    1.000000    
    358 O2    c    0.315497 *  0.297587 *  0.284877 *  -1.21800    1.000000    
    359 O2    c    0.148881 *  0.834049 *  0.284965 *  -1.21800    1.000000    
    360 O2    c    0.148911 *  0.964204 *  0.285122 *  -1.21800    1.000000    
    361 O2    c    0.982526 *  0.834383 *  0.285039 *  -1.21800    1.000000    
    362 O2    c    0.982547 *  0.964062 *  0.285145 *  -1.21800    1.000000    
    363 O2    c    0.815541 *  0.834491 *  0.284995 *  -1.21800    1.000000    
    364 O2    c    0.815513 *  0.964081 *  0.284994 *  -1.21800    1.000000    
    365 O2    c    0.648777 *  0.834425 *  0.284931 *  -1.21800    1.000000    
    366 O2    c    0.648768 *  0.964116 *  0.284915 *  -1.21800    1.000000    
    367 O2    c    0.481966 *  0.834402 *  0.284964 *  -1.21800    1.000000    
    368 O2    c    0.481931 *  0.963930 *  0.285029 *  -1.21800    1.000000    
    369 O2    c    0.315118 *  0.834211 *  0.285035 *  -1.21800    1.000000    
    370 O2    c    0.315146 *  0.963931 *  0.285168 *  -1.21800    1.000000    
    371 O2    c    0.148807 *  0.501348 *  0.284831 *  -1.21800    1.000000    
    372 O2    c    0.148876 *  0.630861 *  0.284730 *  -1.21800    1.000000    
    373 O2    c    0.982291 *  0.501232 *  0.284815 *  -1.21800    1.000000    
    374 O2    c    0.982100 *  0.630787 *  0.284762 *  -1.21800    1.000000    
    375 O2    c    0.815319 *  0.501119 *  0.284858 *  -1.21800    1.000000    
    376 O2    c    0.815269 *  0.630563 *  0.284943 *  -1.21800    1.000000    
    377 O2    c    0.648589 *  0.500871 *  0.284824 *  -1.21800    1.000000    
    378 O2    c    0.648536 *  0.630681 *  0.284936 *  -1.21800    1.000000    
    379 O2    c    0.482267 *  0.500961 *  0.284840 *  -1.21800    1.000000    
    380 O2    c    0.482381 *  0.630752 *  0.284877 *  -1.21800    1.000000    
    381 O2    c    0.399087 *  0.732581 *  0.273954 *  -1.21800    1.000000    
    382 O2    c    0.232102 *  0.399608 *  0.274033 *  -1.21800    1.000000    
    383 O2    c    0.065522 *  0.399458 *  0.274051 *  -1.21800    1.000000    
    384 O2    c    0.898939 *  0.399411 *  0.274030 *  -1.21800    1.000000    
    385 O2    c    0.732351 *  0.399223 *  0.273966 *  -1.21800    1.000000    
    386 O2    c    0.565426 *  0.399110 *  0.273935 *  -1.21800    1.000000    
    387 O2    c    0.398561 *  0.399422 *  0.273976 *  -1.21800    1.000000    
    388 O2    c    0.232240 *  0.066109 *  0.274166 *  -1.21800    1.000000    
    389 O2    c    0.065455 *  0.066072 *  0.274166 *  -1.21800    1.000000    
    390 O2    c    0.898856 *  0.065894 *  0.274157 *  -1.21800    1.000000    
    391 O2    c    0.732166 *  0.066000 *  0.274129 *  -1.21800    1.000000    
    392 O2    c    0.565379 *  0.065879 *  0.274128 *  -1.21800    1.000000    
    393 O2    c    0.398739 *  0.065802 *  0.274152 *  -1.21800    1.000000    
    394 O2    c    0.232349 *  0.732184 *  0.273884 *  -1.21800    1.000000    
    395 O2    c    0.065113 *  0.732368 *  0.273905 *  -1.21800    1.000000    
    396 O2    c    0.898425 *  0.732578 *  0.274039 *  -1.21800    1.000000    
    397 O2    c    0.732126 *  0.732570 *  0.274112 *  -1.21800    1.000000    
    398 O2    c    0.565688 *  0.732803 *  0.274061 *  -1.21800    1.000000    
    399 O2    c    0.398605 *  0.565959 *  0.268309 *  -1.21800    1.000000    
    400 O2    c    0.232212 *  0.232772 *  0.268342 *  -1.21800    1.000000    
    401 O2    c    0.065493 *  0.232808 *  0.268349 *  -1.21800    1.000000    
    402 O2    c    0.898767 *  0.232747 *  0.268343 *  -1.21800    1.000000    
    403 O2    c    0.732108 *  0.232739 *  0.268337 *  -1.21800    1.000000    
    404 O2    c    0.565464 *  0.232709 *  0.268342 *  -1.21800    1.000000    
    405 O2    c    0.398824 *  0.232750 *  0.268341 *  -1.21800    1.000000    
    406 O2    c    0.232353 *  0.899187 *  0.268676 *  -1.21800    1.000000    
    407 O2    c    0.065398 *  0.899247 *  0.268682 *  -1.21800    1.000000    
    408 O2    c    0.898711 *  0.899245 *  0.268519 *  -1.21800    1.000000    
    409 O2    c    0.732081 *  0.899226 *  0.268409 *  -1.21800    1.000000    
    410 O2    c    0.565413 *  0.899232 *  0.268400 *  -1.21800    1.000000    
    411 O2    c    0.398876 *  0.899194 *  0.268499 *  -1.21800    1.000000    
    412 O2    c    0.232203 *  0.565977 *  0.268204 *  -1.21800    1.000000    
    413 O2    c    0.065587 *  0.565993 *  0.268214 *  -1.21800    1.000000    
    414 O2    c    0.898840 *  0.565938 *  0.268266 *  -1.21800    1.000000    
    415 O2    c    0.732219 *  0.565950 *  0.268359 *  -1.21800    1.000000    
    416 O2    c    0.565392 *  0.565910 *  0.268417 *  -1.21800    1.000000    
    417 O2    c    0.315578 *  0.667092 *  0.257298 *  -1.21800    1.000000    
    418 O2    c    0.315448 *  0.464875 *  0.257317 *  -1.21800    1.000000    
    419 O2    c    0.148835 *  0.333850 *  0.257381 *  -1.21800    1.000000    
    420 O2    c    0.148831 *  0.131552 *  0.257469 *  -1.21800    1.000000    
    421 O2    c    0.982168 *  0.333825 *  0.257374 *  -1.21800    1.000000    
    422 O2    c    0.982139 *  0.131543 *  0.257461 *  -1.21800    1.000000    
    423 O2    c    0.815530 *  0.333789 *  0.257347 *  -1.21800    1.000000    
    424 O2    c    0.815479 *  0.131520 *  0.257453 *  -1.21800    1.000000    
    425 O2    c    0.648821 *  0.333789 *  0.257336 *  -1.21800    1.000000    
    426 O2    c    0.648774 *  0.131502 *  0.257448 *  -1.21800    1.000000    
    427 O2    c    0.482085 *  0.333811 *  0.257342 *  -1.21800    1.000000    
    428 O2    c    0.482111 *  0.131501 *  0.257456 *  -1.21800    1.000000    
    429 O2    c    0.315435 *  0.333832 *  0.257359 *  -1.21800    1.000000    
    430 O2    c    0.315515 *  0.131538 *  0.257459 *  -1.21800    1.000000    
    431 O2    c    0.148853 *  0.000429 *  0.257588 *  -1.21800    1.000000    
    432 O2    c    0.148830 *  0.798014 *  0.257472 *  -1.21800    1.000000    
    433 O2    c    0.982190 *  0.000422 *  0.257547 *  -1.21800    1.000000    
    434 O2    c    0.982050 *  0.798108 *  0.257445 *  -1.21800    1.000000    
    435 O2    c    0.815493 *  0.000444 *  0.257489 *  -1.21800    1.000000    
    436 O2    c    0.815410 *  0.798162 *  0.257424 *  -1.21800    1.000000    
    437 O2    c    0.648783 *  0.000450 *  0.257463 *  -1.21800    1.000000    
    438 O2    c    0.648834 *  0.798169 *  0.257408 *  -1.21800    1.000000    
    439 O2    c    0.482081 *  0.000413 *  0.257481 *  -1.21800    1.000000    
    440 O2    c    0.482190 *  0.798140 *  0.257395 *  -1.21800    1.000000    
    441 O2    c    0.315441 *  0.000404 *  0.257540 *  -1.21800    1.000000    
    442 O2    c    0.315508 *  0.798053 *  0.257427 *  -1.21800    1.000000    
    443 O2    c    0.148815 *  0.667108 *  0.257278 *  -1.21800    1.000000    
    444 O2    c    0.148831 *  0.464885 *  0.257320 *  -1.21800    1.000000    
    445 O2    c    0.982011 *  0.667073 *  0.257306 *  -1.21800    1.000000    
    446 O2    c    0.982186 *  0.464867 *  0.257333 *  -1.21800    1.000000    
    447 O2    c    0.815393 *  0.667051 *  0.257378 *  -1.21800    1.000000    
    448 O2    c    0.815507 *  0.464822 *  0.257342 *  -1.21800    1.000000    
    449 O2    c    0.648798 *  0.667070 *  0.257420 *  -1.21800    1.000000    
    450 O2    c    0.648800 *  0.464769 *  0.257368 *  -1.21800    1.000000    
    451 O2    c    0.482234 *  0.667089 *  0.257380 *  -1.21800    1.000000    
    452 O2    c    0.482099 *  0.464801 *  0.257356 *  -1.21800    1.000000    
    453 O2    c    0.399085 *  0.565979 *  0.246916 *  -1.21800    1.000000    
    454 O2    c    0.232142 *  0.232693 *  0.246968 *  -1.21800    1.000000    
    455 O2    c    0.065496 *  0.232699 *  0.246974 *  -1.21800    1.000000    
    456 O2    c    0.898830 *  0.232653 *  0.246967 *  -1.21800    1.000000    
    457 O2    c    0.732129 *  0.232614 *  0.246958 *  -1.21800    1.000000    
    458 O2    c    0.565452 *  0.232643 *  0.246958 *  -1.21800    1.000000    
    459 O2    c    0.398815 *  0.232678 *  0.246961 *  -1.21800    1.000000    
    460 O2    c    0.231920 *  0.899132 *  0.247231 *  -1.21800    1.000000    
    461 O2    c    0.065696 *  0.899161 *  0.247243 *  -1.21800    1.000000    
    462 O2    c    0.899106 *  0.899303 *  0.247133 *  -1.21800    1.000000    
    463 O2    c    0.732254 *  0.899391 *  0.247043 *  -1.21800    1.000000    
    464 O2    c    0.565371 *  0.899347 *  0.247032 *  -1.21800    1.000000    
    465 O2    c    0.398491 *  0.899233 *  0.247109 *  -1.21800    1.000000    
    466 O2    c    0.232249 *  0.566063 *  0.246838 *  -1.21800    1.000000    
    467 O2    c    0.065415 *  0.566032 *  0.246843 *  -1.21800    1.000000    
    468 O2    c    0.898641 *  0.565935 *  0.246894 *  -1.21800    1.000000    
    469 O2    c    0.731933 *  0.565883 *  0.246967 *  -1.21800    1.000000    
    470 O2    c    0.565525 *  0.565892 *  0.246994 *  -1.21800    1.000000    
    471 O2    c    0.398745 *  0.732634 *  0.240394 *  -1.21800    1.000000    
    472 O2    c    0.232180 *  0.399269 *  0.240405 *  -1.21800    1.000000    
    473 O2    c    0.065505 *  0.399274 *  0.240421 *  -1.21800    1.000000    
    474 O2    c    0.898800 *  0.399299 *  0.240412 *  -1.21800    1.000000    
    475 O2    c    0.732091 *  0.399318 *  0.240386 *  -1.21800    1.000000    
    476 O2    c    0.565451 *  0.399329 *  0.240370 *  -1.21800    1.000000    
    477 O2    c    0.398837 *  0.399297 *  0.240382 *  -1.21800    1.000000    
    478 O2    c    0.232164 *  0.065959 *  0.240580 *  -1.21800    1.000000    
    479 O2    c    0.065504 *  0.065950 *  0.240584 *  -1.21800    1.000000    
    480 O2    c    0.898802 *  0.065977 *  0.240558 *  -1.21800    1.000000    
    481 O2    c    0.732114 *  0.065993 *  0.240528 *  -1.21800    1.000000    
    482 O2    c    0.565452 *  0.065990 *  0.240524 *  -1.21800    1.000000    
    483 O2    c    0.398815 *  0.065976 *  0.240550 *  -1.21800    1.000000    
    484 O2    c    0.232148 *  0.732705 *  0.240351 *  -1.21800    1.000000    
    485 O2    c    0.065565 *  0.732711 *  0.240381 *  -1.21800    1.000000    
    486 O2    c    0.898856 *  0.732654 *  0.240447 *  -1.21800    1.000000    
    487 O2    c    0.732118 *  0.732591 *  0.240488 *  -1.21800    1.000000    
    488 O2    c    0.565406 *  0.732583 *  0.240460 *  -1.21800    1.000000    
    489 O2    c    0.315596 *  0.505358 *  0.229184 *  -1.21800    1.000000    
    490 O2    c    0.148811 *  0.171924 *  0.229310 *  -1.21800    1.000000    
    491 O2    c    0.982153 *  0.171921 *  0.229301 *  -1.21800    1.000000    
    492 O2    c    0.815489 *  0.171918 *  0.229279 *  -1.21800    1.000000    
    493 O2    c    0.648797 *  0.171916 *  0.229266 *  -1.21800    1.000000    
    494 O2    c    0.482128 *  0.171916 *  0.229274 *  -1.21800    1.000000    
    495 O2    c    0.315481 *  0.171923 *  0.229297 *  -1.21800    1.000000    
    496 O2    c    0.148808 *  0.838604 *  0.229357 *  -1.21800    1.000000    
    497 O2    c    0.982301 *  0.838638 *  0.229370 *  -1.21800    1.000000    
    498 O2    c    0.815613 *  0.838679 *  0.229351 *  -1.21800    1.000000    
    499 O2    c    0.648823 *  0.838690 *  0.229327 *  -1.21800    1.000000    
    500 O2    c    0.482001 *  0.838678 *  0.229321 *  -1.21800    1.000000    
    501 O2    c    0.315299 *  0.838636 *  0.229337 *  -1.21800    1.000000    
    502 O2    c    0.148818 *  0.505366 *  0.229170 *  -1.21800    1.000000    
    503 O2    c    0.982067 *  0.505348 *  0.229179 *  -1.21800    1.000000    
    504 O2    c    0.815356 *  0.505326 *  0.229203 *  -1.21800    1.000000    
    505 O2    c    0.648766 *  0.505299 *  0.229211 *  -1.21800    1.000000    
    506 O2    c    0.482250 *  0.505312 *  0.229200 *  -1.21800    1.000000    
    507 O2    c    0.315608 *  0.626673 *  0.229161 *  -1.21800    1.000000    
    508 O2    c    0.148821 *  0.293269 *  0.229222 *  -1.21800    1.000000    
    509 O2    c    0.982161 *  0.293265 *  0.229229 *  -1.21800    1.000000    
    510 O2    c    0.815486 *  0.293254 *  0.229226 *  -1.21800    1.000000    
    511 O2    c    0.648807 *  0.293249 *  0.229216 *  -1.21800    1.000000    
    512 O2    c    0.482125 *  0.293257 *  0.229210 *  -1.21800    1.000000    
    513 O2    c    0.315462 *  0.293266 *  0.229214 *  -1.21800    1.000000    
    514 O2    c    0.148801 *  0.959994 *  0.229483 *  -1.21800    1.000000    
    515 O2    c    0.982310 *  0.959978 *  0.229453 *  -1.21800    1.000000    
    516 O2    c    0.815613 *  0.959965 *  0.229373 *  -1.21800    1.000000    
    517 O2    c    0.648814 *  0.959959 *  0.229328 *  -1.21800    1.000000    
    518 O2    c    0.482012 *  0.959951 *  0.229365 *  -1.21800    1.000000    
    519 O2    c    0.315299 *  0.959969 *  0.229444 *  -1.21800    1.000000    
    520 O2    c    0.148818 *  0.626671 *  0.229134 *  -1.21800    1.000000    
    521 O2    c    0.982053 *  0.626677 *  0.229172 *  -1.21800    1.000000    
    522 O2    c    0.815358 *  0.626678 *  0.229237 *  -1.21800    1.000000    
    523 O2    c    0.648761 *  0.626698 *  0.229260 *  -1.21800    1.000000    
    524 O2    c    0.482250 *  0.626700 *  0.229222 *  -1.21800    1.000000    
    525 O2    c    0.398957 *  0.732854 *  0.219739 *  -1.21800    1.000000    
    526 O2    c    0.232103 *  0.399434 *  0.219748 *  -1.21800    1.000000    
    527 O2    c    0.065462 *  0.399368 *  0.219761 *  -1.21800    1.000000    
    528 O2    c    0.898838 *  0.399297 *  0.219753 *  -1.21800    1.000000    
    529 O2    c    0.732198 *  0.399191 *  0.219728 *  -1.21800    1.000000    
    530 O2    c    0.565491 *  0.399140 *  0.219712 *  -1.21800    1.000000    
    531 O2    c    0.398769 *  0.399305 *  0.219724 *  -1.21800    1.000000    
    532 O2    c    0.232082 *  0.065865 *  0.219919 *  -1.21800    1.000000    
    533 O2    c    0.065516 *  0.065870 *  0.219922 *  -1.21800    1.000000    
    534 O2    c    0.898922 *  0.065777 *  0.219900 *  -1.21800    1.000000    
    535 O2    c    0.732209 *  0.065794 *  0.219873 *  -1.21800    1.000000    
    536 O2    c    0.565427 *  0.065767 *  0.219870 *  -1.21800    1.000000    
    537 O2    c    0.398697 *  0.065740 *  0.219894 *  -1.21800    1.000000    
    538 O2    c    0.232165 *  0.732615 *  0.219698 *  -1.21800    1.000000    
    539 O2    c    0.065329 *  0.732667 *  0.219725 *  -1.21800    1.000000    
    540 O2    c    0.898656 *  0.732823 *  0.219789 *  -1.21800    1.000000    
    541 O2    c    0.732131 *  0.732920 *  0.219826 *  -1.21800    1.000000    
    542 O2    c    0.565605 *  0.733006 *  0.219800 *  -1.21800    1.000000    
    543 O177  c    0.145046 *  0.897784 *  0.422968 *  -1.08000    1.000000    
    544 O177  c    0.267806 *  0.897784 *  0.422968 *  -1.08000    1.000000    
    545 O176  c    0.241596 *  0.897784 *  0.358890 *  -1.08000    1.000000    
    546 O176  c    0.118836 *  0.897784 *  0.358890 *  -1.08000    1.000000    
    547 O171  c    0.217822 *  0.897784 *  0.450828 *  -2.00000    1.000000    
    548 O171  c    0.717822 *  0.397784 *  0.450828 *  -2.00000    1.000000    
    549 O170  c    0.306419 *  0.750814 *  0.458181 *  -1.08000    1.000000    
    550 O170  c    0.067844 *  0.983374 *  0.443475 *  -1.08000    1.000000    
    551 O170  c    0.361784 *  0.812194 *  0.443475 *  -1.08000    1.000000    
    552 O170  c    0.135239 *  0.044754 *  0.458181 *  -1.08000    1.000000    
    553 O170  c    0.361784 *  0.983374 *  0.443475 *  -1.08000    1.000000    
    554 O170  c    0.067844 *  0.812194 *  0.443475 *  -1.08000    1.000000    
    555 O170  c    0.306419 *  0.044754 *  0.458181 *  -1.08000    1.000000    
    556 O170  c    0.135239 *  0.750814 *  0.458181 *  -1.08000    1.000000    
    557 O170  c    0.229217 *  0.959164 *  0.478688 *  -1.08000    1.000000    
    558 O170  c    0.694047 *  0.397784 *  0.542766 *  -1.08000    1.000000    
    559 O170  c    0.229217 *  0.836404 *  0.478688 *  -1.08000    1.000000    
    560 O170  c    0.816807 *  0.397784 *  0.542766 *  -1.08000    1.000000    
    561 O170  c    0.790597 *  0.397784 *  0.478688 *  -1.08000    1.000000    
    562 O170  c    0.255427 *  0.959164 *  0.542766 *  -1.08000    1.000000    
    563 O170  c    0.667837 *  0.397784 *  0.478688 *  -1.08000    1.000000    
    564 O170  c    0.255427 *  0.836404 *  0.542766 *  -1.08000    1.000000    
    565 O170  c    0.573859 *  0.312194 *  0.458181 *  -1.08000    1.000000    
    566 O170  c    0.800404 *  0.544754 *  0.443475 *  -1.08000    1.000000    
    567 O170  c    0.629224 *  0.250814 *  0.443475 *  -1.08000    1.000000    
    568 O170  c    0.867799 *  0.483374 *  0.458181 *  -1.08000    1.000000    
    569 O170  c    0.800404 *  0.250814 *  0.443475 *  -1.08000    1.000000    
    570 O170  c    0.629224 *  0.544754 *  0.443475 *  -1.08000    1.000000    
    571 O170  c    0.867799 *  0.312194 *  0.458181 *  -1.08000    1.000000    
    572 O170  c    0.573859 *  0.483374 *  0.458181 *  -1.08000    1.000000    
    573 O171  c    0.766823 *  0.397784 *  0.570627 *  -2.00000    1.000000    
    574 O171  c    0.266823 *  0.897784 *  0.570627 *  -2.00000    1.000000    
    575 O170  c    0.855421 *  0.250814 *  0.577980 *  -1.08000    1.000000    
    576 O170  c    0.616845 *  0.483374 *  0.563273 *  -1.08000    1.000000    
    577 O170  c    0.910785 *  0.312194 *  0.563273 *  -1.08000    1.000000    
    578 O170  c    0.684241 *  0.544754 *  0.577980 *  -1.08000    1.000000    
    579 O170  c    0.910785 *  0.483374 *  0.563273 *  -1.08000    1.000000    
    580 O170  c    0.616845 *  0.312194 *  0.563273 *  -1.08000    1.000000    
    581 O170  c    0.855421 *  0.544754 *  0.577980 *  -1.08000    1.000000    
    582 O170  c    0.684241 *  0.250814 *  0.577980 *  -1.08000    1.000000    
    583 O170  c    0.778219 *  0.459164 *  0.598487 *  -1.08000    1.000000    
    584 O170  c    0.243049 *  0.897784 *  0.662565 *  -1.08000    1.000000    
    585 O170  c    0.778219 *  0.336404 *  0.598487 *  -1.08000    1.000000    
    586 O170  c    0.365809 *  0.897784 *  0.662565 *  -1.08000    1.000000    
    587 O170  c    0.339599 *  0.897784 *  0.598487 *  -1.08000    1.000000    
    588 O170  c    0.804429 *  0.459164 *  0.662565 *  -1.08000    1.000000    
    589 O170  c    0.216839 *  0.897784 *  0.598487 *  -1.08000    1.000000    
    590 O170  c    0.804429 *  0.336404 *  0.662565 *  -1.08000    1.000000    
    591 O170  c    0.122861 *  0.812194 *  0.577980 *  -1.08000    1.000000    
    592 O170  c    0.349405 *  0.044754 *  0.563273 *  -1.08000    1.000000    
    593 O170  c    0.178225 *  0.750814 *  0.563273 *  -1.08000    1.000000    
    594 O170  c    0.416801 *  0.983374 *  0.577980 *  -1.08000    1.000000    
    595 O170  c    0.349405 *  0.750814 *  0.563273 *  -1.08000    1.000000    
    596 O170  c    0.178225 *  0.044754 *  0.563273 *  -1.08000    1.000000    
    597 O170  c    0.416801 *  0.812194 *  0.577980 *  -1.08000    1.000000    
    598 O170  c    0.122861 *  0.983374 *  0.577980 *  -1.08000    1.000000    
    599 O171  c    0.315824 *  0.897784 *  0.690425 *  -2.00000    1.000000    
    600 O171  c    0.815824 *  0.397784 *  0.690425 *  -2.00000    1.000000    
    601 O170  c    0.404422 *  0.750814 *  0.697778 *  -1.08000    1.000000    
    602 O170  c    0.165847 *  0.983374 *  0.683072 *  -1.08000    1.000000    
    603 O170  c    0.459787 *  0.812194 *  0.683072 *  -1.08000    1.000000    
    604 O170  c    0.233242 *  0.044754 *  0.697778 *  -1.08000    1.000000    
    605 O170  c    0.459787 *  0.983374 *  0.683072 *  -1.08000    1.000000    
    606 O170  c    0.165847 *  0.812194 *  0.683072 *  -1.08000    1.000000    
    607 O170  c    0.404422 *  0.044754 *  0.697778 *  -1.08000    1.000000    
    608 O170  c    0.233242 *  0.750814 *  0.697778 *  -1.08000    1.000000    
    609 O170  c    0.327220 *  0.959164 *  0.718285 *  -1.08000    1.000000    
    610 O173  c    0.792050 *  0.397784 *  0.782363 *  -0.69000    1.000000    
    611 O170  c    0.327220 *  0.836404 *  0.718285 *  -1.08000    1.000000    
    612 O172  c    0.914810 *  0.397784 *  0.782363 *  -0.69000    1.000000    
    613 H21   c    0.914810 *  0.397784 *  0.791069 *   0.22000    1.000000    
    614 O170  c    0.888600 *  0.397784 *  0.718285 *  -1.08000    1.000000    
    615 O173  c    0.353430 *  0.959164 *  0.782363 *  -0.69000    1.000000    
    616 O170  c    0.765840 *  0.397784 *  0.718285 *  -1.08000    1.000000    
    617 O172  c    0.353430 *  0.836404 *  0.782363 *  -0.69000    1.000000    
    618 H21   c    0.353430 *  0.836404 *  0.791069 *   0.22000    1.000000    
    619 O170  c    0.671862 *  0.312194 *  0.697778 *  -1.08000    1.000000    
    620 O170  c    0.898407 *  0.544754 *  0.683072 *  -1.08000    1.000000    
    621 O170  c    0.727227 *  0.250814 *  0.683072 *  -1.08000    1.000000    
    622 O170  c    0.965802 *  0.483374 *  0.697778 *  -1.08000    1.000000    
    623 O170  c    0.898407 *  0.250814 *  0.683072 *  -1.08000    1.000000    
    624 O170  c    0.727227 *  0.544754 *  0.683072 *  -1.08000    1.000000    
    625 O170  c    0.965802 *  0.312194 *  0.697778 *  -1.08000    1.000000    
    626 O170  c    0.671862 *  0.483374 *  0.697778 *  -1.08000    1.000000    
    627 C912  c    0.130024 *  0.897784 *  0.397343 *  -0.07025    1.000000    
    628 C912  c    0.261864 *  0.897784 *  0.397343 *  -0.07025    1.000000    
    629 C912  c    0.256617 *  0.897784 *  0.384515 *  -0.07025    1.000000    
    630 C912  c    0.124777 *  0.897784 *  0.384515 *  -0.07025    1.000000    
    631 C917  c    0.204252 *  0.897784 *  0.417654 *   1.07050    1.000000    
    632 C916  c    0.182390 *  0.897784 *  0.364204 *   1.07050    1.000000    
    633 C902  c    0.198587 *  0.897784 *  0.403802 *   0.00500    1.000000    
    634 C902  c    0.188055 *  0.897784 *  0.378055 *   0.00500    1.000000    
    635 C912  c    0.411322 *  0.641594 *  0.458725 *  -0.07025    1.000000    
    636 C912  c    0.958401 *  0.088054 *  0.442931 *  -0.07025    1.000000    
    637 C912  c    0.470781 *  0.707514 *  0.442931 *  -0.07025    1.000000    
    638 C912  c    0.030782 *  0.153974 *  0.458725 *  -0.07025    1.000000    
    639 C912  c    0.470781 *  0.088054 *  0.442931 *  -0.07025    1.000000    
    640 C912  c    0.958401 *  0.707514 *  0.442931 *  -0.07025    1.000000    
    641 C912  c    0.411322 *  0.153974 *  0.458725 *  -0.07025    1.000000    
    642 C912  c    0.030782 *  0.641594 *  0.458725 *  -0.07025    1.000000    
    643 C912  c    0.239699 *  0.963704 *  0.504313 *  -0.07025    1.000000    
    644 C912  c    0.679026 *  0.397784 *  0.517141 *  -0.07025    1.000000    
    645 C912  c    0.239699 *  0.831864 *  0.504313 *  -0.07025    1.000000    
    646 C912  c    0.810866 *  0.397784 *  0.517141 *  -0.07025    1.000000    
    647 C912  c    0.805619 *  0.397784 *  0.504313 *  -0.07025    1.000000    
    648 C912  c    0.244946 *  0.963704 *  0.517141 *  -0.07025    1.000000    
    649 C912  c    0.673779 *  0.397784 *  0.504313 *  -0.07025    1.000000    
    650 C912  c    0.244946 *  0.831864 *  0.517141 *  -0.07025    1.000000    
    651 C912  c    0.464862 *  0.207514 *  0.458725 *  -0.07025    1.000000    
    652 C912  c    0.904862 *  0.653974 *  0.442931 *  -0.07025    1.000000    
    653 C912  c    0.524321 *  0.141594 *  0.442931 *  -0.07025    1.000000    
    654 C912  c    0.977242 *  0.588054 *  0.458725 *  -0.07025    1.000000    
    655 C912  c    0.904862 *  0.141594 *  0.442931 *  -0.07025    1.000000    
    656 C912  c    0.524321 *  0.653974 *  0.442931 *  -0.07025    1.000000    
    657 C912  c    0.977242 *  0.207514 *  0.458725 *  -0.07025    1.000000    
    658 C912  c    0.464862 *  0.588054 *  0.458725 *  -0.07025    1.000000    
    659 C913  c    0.356282 *  0.759324 *  0.450828 *   1.07050    1.000000    
    660 C913  c    0.079362 *  0.036244 *  0.450828 *   1.07050    1.000000    
    661 C913  c    0.356282 *  0.036244 *  0.450828 *   1.07050    1.000000    
    662 C913  c    0.079362 *  0.759324 *  0.450828 *   1.07050    1.000000    
    663 C913  c    0.231391 *  0.897784 *  0.484003 *   1.07050    1.000000    
    664 C913  c    0.753253 *  0.397784 *  0.537452 *   1.07050    1.000000    
    665 C913  c    0.731391 *  0.397784 *  0.484003 *   1.07050    1.000000    
    666 C913  c    0.253253 *  0.897784 *  0.537452 *   1.07050    1.000000    
    667 C913  c    0.579362 *  0.259324 *  0.450828 *   1.07050    1.000000    
    668 C913  c    0.856282 *  0.536244 *  0.450828 *   1.07050    1.000000    
    669 C913  c    0.856282 *  0.259324 *  0.450828 *   1.07050    1.000000    
    670 C913  c    0.579362 *  0.536244 *  0.450828 *   1.07050    1.000000    
    671 C902  c    0.414092 *  0.701514 *  0.450828 *   0.00500    1.000000    
    672 C902  c    0.021552 *  0.094054 *  0.450828 *   0.00500    1.000000    
    673 C902  c    0.414092 *  0.094054 *  0.450828 *   0.00500    1.000000    
    674 C902  c    0.021552 *  0.701514 *  0.450828 *   0.00500    1.000000    
    675 C902  c    0.237057 *  0.897784 *  0.497854 *   0.00500    1.000000    
    676 C902  c    0.747588 *  0.397784 *  0.523601 *   0.00500    1.000000    
    677 C902  c    0.737057 *  0.397784 *  0.497854 *   0.00500    1.000000    
    678 C902  c    0.247588 *  0.897784 *  0.523601 *   0.00500    1.000000    
    679 C902  c    0.521552 *  0.201514 *  0.450828 *   0.00500    1.000000    
    680 C902  c    0.914092 *  0.594054 *  0.450828 *   0.00500    1.000000    
    681 C902  c    0.914092 *  0.201514 *  0.450828 *   0.00500    1.000000    
    682 C902  c    0.521552 *  0.594054 *  0.450828 *   0.00500    1.000000    
    683 C912  c    0.960323 *  0.141594 *  0.578524 *  -0.07025    1.000000    
    684 C912  c    0.507403 *  0.588054 *  0.562729 *  -0.07025    1.000000    
    685 C912  c    0.019783 *  0.207514 *  0.562729 *  -0.07025    1.000000    
    686 C912  c    0.579783 *  0.653974 *  0.578524 *  -0.07025    1.000000    
    687 C912  c    0.019783 *  0.588054 *  0.562729 *  -0.07025    1.000000    
    688 C912  c    0.507403 *  0.207514 *  0.562729 *  -0.07025    1.000000    
    689 C912  c    0.960323 *  0.653974 *  0.578524 *  -0.07025    1.000000    
    690 C912  c    0.579783 *  0.141594 *  0.578524 *  -0.07025    1.000000    
    691 C912  c    0.788700 *  0.463704 *  0.624112 *  -0.07025    1.000000    
    692 C912  c    0.228027 *  0.897784 *  0.636940 *  -0.07025    1.000000    
    693 C912  c    0.788700 *  0.331864 *  0.624112 *  -0.07025    1.000000    
    694 C912  c    0.359867 *  0.897784 *  0.636940 *  -0.07025    1.000000    
    695 C912  c    0.354620 *  0.897784 *  0.624112 *  -0.07025    1.000000    
    696 C912  c    0.793947 *  0.463704 *  0.636940 *  -0.07025    1.000000    
    697 C912  c    0.222780 *  0.897784 *  0.624112 *  -0.07025    1.000000    
    698 C912  c    0.793947 *  0.331864 *  0.636940 *  -0.07025    1.000000    
    699 C912  c    0.013863 *  0.707514 *  0.578524 *  -0.07025    1.000000    
    700 C912  c    0.453863 *  0.153974 *  0.562729 *  -0.07025    1.000000    
    701 C912  c    0.073323 *  0.641594 *  0.562729 *  -0.07025    1.000000    
    702 C912  c    0.526243 *  0.088054 *  0.578524 *  -0.07025    1.000000    
    703 C912  c    0.453863 *  0.641594 *  0.562729 *  -0.07025    1.000000    
    704 C912  c    0.073323 *  0.153974 *  0.562729 *  -0.07025    1.000000    
    705 C912  c    0.526243 *  0.707514 *  0.578524 *  -0.07025    1.000000    
    706 C912  c    0.013863 *  0.088054 *  0.578524 *  -0.07025    1.000000    
    707 C913  c    0.905283 *  0.259324 *  0.570627 *   1.07050    1.000000    
    708 C913  c    0.628363 *  0.536244 *  0.570627 *   1.07050    1.000000    
    709 C913  c    0.905283 *  0.536244 *  0.570627 *   1.07050    1.000000    
    710 C913  c    0.628363 *  0.259324 *  0.570627 *   1.07050    1.000000    
    711 C913  c    0.780392 *  0.397784 *  0.603801 *   1.07050    1.000000    
    712 C913  c    0.302255 *  0.897784 *  0.657250 *   1.07050    1.000000    
    713 C913  c    0.280392 *  0.897784 *  0.603801 *   1.07050    1.000000    
    714 C913  c    0.802255 *  0.397784 *  0.657250 *   1.07050    1.000000    
    715 C913  c    0.128363 *  0.759324 *  0.570627 *   1.07050    1.000000    
    716 C913  c    0.405283 *  0.036244 *  0.570627 *   1.07050    1.000000    
    717 C913  c    0.405283 *  0.759324 *  0.570627 *   1.07050    1.000000    
    718 C913  c    0.128363 *  0.036244 *  0.570627 *   1.07050    1.000000    
    719 C902  c    0.963093 *  0.201514 *  0.570627 *   0.00500    1.000000    
    720 C902  c    0.570553 *  0.594054 *  0.570627 *   0.00500    1.000000    
    721 C902  c    0.963093 *  0.594054 *  0.570627 *   0.00500    1.000000    
    722 C902  c    0.570553 *  0.201514 *  0.570627 *   0.00500    1.000000    
    723 C902  c    0.786058 *  0.397784 *  0.617652 *   0.00500    1.000000    
    724 C902  c    0.296589 *  0.897784 *  0.643399 *   0.00500    1.000000    
    725 C902  c    0.286058 *  0.897784 *  0.617652 *   0.00500    1.000000    
    726 C902  c    0.796589 *  0.397784 *  0.643399 *   0.00500    1.000000    
    727 C902  c    0.070553 *  0.701514 *  0.570627 *   0.00500    1.000000    
    728 C902  c    0.463093 *  0.094054 *  0.570627 *   0.00500    1.000000    
    729 C902  c    0.463093 *  0.701514 *  0.570627 *   0.00500    1.000000    
    730 C902  c    0.070553 *  0.094054 *  0.570627 *   0.00500    1.000000    
    731 C912  c    0.509324 *  0.641594 *  0.698322 *  -0.07025    1.000000    
    732 C912  c    0.056404 *  0.088054 *  0.682528 *  -0.07025    1.000000    
    733 C912  c    0.568784 *  0.707514 *  0.682528 *  -0.07025    1.000000    
    734 C912  c    0.128784 *  0.153974 *  0.698322 *  -0.07025    1.000000    
    735 C912  c    0.568784 *  0.088054 *  0.682528 *  -0.07025    1.000000    
    736 C912  c    0.056404 *  0.707514 *  0.682528 *  -0.07025    1.000000    
    737 C912  c    0.509324 *  0.153974 *  0.698322 *  -0.07025    1.000000    
    738 C912  c    0.128784 *  0.641594 *  0.698322 *  -0.07025    1.000000    
    739 C912  c    0.337701 *  0.963704 *  0.743910 *  -0.07025    1.000000    
    740 C912  c    0.777028 *  0.397784 *  0.756738 *  -0.07025    1.000000    
    741 C912  c    0.337701 *  0.831864 *  0.743910 *  -0.07025    1.000000    
    742 C912  c    0.908869 *  0.397784 *  0.756738 *  -0.07025    1.000000    
    743 C912  c    0.903621 *  0.397784 *  0.743910 *  -0.07025    1.000000    
    744 C912  c    0.342948 *  0.963704 *  0.756738 *  -0.07025    1.000000    
    745 C912  c    0.771781 *  0.397784 *  0.743910 *  -0.07025    1.000000    
    746 C912  c    0.342948 *  0.831864 *  0.756738 *  -0.07025    1.000000    
    747 C912  c    0.562864 *  0.207514 *  0.698322 *  -0.07025    1.000000    
    748 C912  c    0.002864 *  0.653974 *  0.682528 *  -0.07025    1.000000    
    749 C912  c    0.622324 *  0.141594 *  0.682528 *  -0.07025    1.000000    
    750 C912  c    0.075244 *  0.588054 *  0.698322 *  -0.07025    1.000000    
    751 C912  c    0.002864 *  0.141594 *  0.682528 *  -0.07025    1.000000    
    752 C912  c    0.622324 *  0.653974 *  0.682528 *  -0.07025    1.000000    
    753 C912  c    0.075244 *  0.207514 *  0.698322 *  -0.07025    1.000000    
    754 C912  c    0.562864 *  0.588054 *  0.698322 *  -0.07025    1.000000    
    755 C913  c    0.454284 *  0.759324 *  0.690425 *   1.07050    1.000000    
    756 C913  c    0.177364 *  0.036244 *  0.690425 *   1.07050    1.000000    
    757 C913  c    0.454284 *  0.036244 *  0.690425 *   1.07050    1.000000    
    758 C913  c    0.177364 *  0.759324 *  0.690425 *   1.07050    1.000000    
    759 C913  c    0.329394 *  0.897784 *  0.723600 *   1.07050    1.000000    
    760 C914  c    0.851256 *  0.397784 *  0.777049 *   1.07050    1.000000    
    761 C913  c    0.829394 *  0.397784 *  0.723600 *   1.07050    1.000000    
    762 C914  c    0.351256 *  0.897784 *  0.777049 *   1.07050    1.000000    
    763 C913  c    0.677364 *  0.259324 *  0.690425 *   1.07050    1.000000    
    764 C913  c    0.954284 *  0.536244 *  0.690425 *   1.07050    1.000000    
    765 C913  c    0.954284 *  0.259324 *  0.690425 *   1.07050    1.000000    
    766 C913  c    0.677364 *  0.536244 *  0.690425 *   1.07050    1.000000    
    767 C902  c    0.512094 *  0.701514 *  0.690425 *   0.00500    1.000000    
    768 C902  c    0.119554 *  0.094054 *  0.690425 *   0.00500    1.000000    
    769 C902  c    0.512094 *  0.094054 *  0.690425 *   0.00500    1.000000    
    770 C902  c    0.119554 *  0.701514 *  0.690425 *   0.00500    1.000000    
    771 C902  c    0.335059 *  0.897784 *  0.737451 *   0.00500    1.000000    
    772 C902  c    0.845591 *  0.397784 *  0.763198 *   0.00500    1.000000    
    773 C902  c    0.835059 *  0.397784 *  0.737451 *   0.00500    1.000000    
    774 C902  c    0.345591 *  0.897784 *  0.763198 *   0.00500    1.000000    
    775 C902  c    0.619554 *  0.201514 *  0.690425 *   0.00500    1.000000    
    776 C902  c    0.012094 *  0.594054 *  0.690425 *   0.00500    1.000000    
    777 C902  c    0.012094 *  0.201514 *  0.690425 *   0.00500    1.000000    
    778 C902  c    0.619554 *  0.594054 *  0.690425 *   0.00500    1.000000    
    779 H915  c    0.086941 *  0.897784 *  0.401735 *   0.11250    1.000000    
    780 H915  c    0.308541 *  0.897784 *  0.401735 *   0.11250    1.000000    
    781 H915  c    0.299701 *  0.897784 *  0.380123 *   0.11250    1.000000    
    782 H915  c    0.078101 *  0.897784 *  0.380123 *   0.11250    1.000000    
    783 H915  c    0.372751 *  0.637484 *  0.464102 *   0.11250    1.000000    
    784 H915  c    0.952092 *  0.047284 *  0.437554 *   0.11250    1.000000    
    785 H915  c    0.472692 *  0.748284 *  0.437554 *   0.11250    1.000000    
    786 H915  c    0.073751 *  0.158084 *  0.464102 *   0.11250    1.000000    
    787 H915  c    0.472692 *  0.047284 *  0.437554 *   0.11250    1.000000    
    788 H915  c    0.952092 *  0.748284 *  0.437554 *   0.11250    1.000000    
    789 H915  c    0.372751 *  0.158084 *  0.464102 *   0.11250    1.000000    
    790 H915  c    0.073751 *  0.637484 *  0.464102 *   0.11250    1.000000    
    791 H915  c    0.237902 *  0.008584 *  0.499922 *   0.11250    1.000000    
    792 H915  c    0.635942 *  0.397784 *  0.521533 *   0.11250    1.000000    
    793 H915  c    0.237902 *  0.786984 *  0.499922 *   0.11250    1.000000    
    794 H915  c    0.857542 *  0.397784 *  0.521533 *   0.11250    1.000000    
    795 H915  c    0.848702 *  0.397784 *  0.499922 *   0.11250    1.000000    
    796 H915  c    0.246742 *  0.008584 *  0.521533 *   0.11250    1.000000    
    797 H915  c    0.627102 *  0.397784 *  0.499922 *   0.11250    1.000000    
    798 H915  c    0.246742 *  0.786984 *  0.521533 *   0.11250    1.000000    
    799 H915  c    0.462951 *  0.248284 *  0.464102 *   0.11250    1.000000    
    800 H915  c    0.861892 *  0.658084 *  0.437554 *   0.11250    1.000000    
    801 H915  c    0.562892 *  0.137484 *  0.437554 *   0.11250    1.000000    
    802 H915  c    0.983551 *  0.547284 *  0.464102 *   0.11250    1.000000    
    803 H915  c    0.861892 *  0.137484 *  0.437554 *   0.11250    1.000000    
    804 H915  c    0.562892 *  0.658084 *  0.437554 *   0.11250    1.000000    
    805 H915  c    0.983551 *  0.248284 *  0.464102 *   0.11250    1.000000    
    806 H915  c    0.462951 *  0.547284 *  0.464102 *   0.11250    1.000000    
    807 H915  c    0.921752 *  0.137484 *  0.583900 *   0.11250    1.000000    
    808 H915  c    0.501094 *  0.547284 *  0.557353 *   0.11250    1.000000    
    809 H915  c    0.021694 *  0.248284 *  0.557353 *   0.11250    1.000000    
    810 H915  c    0.622752 *  0.658084 *  0.583900 *   0.11250    1.000000    
    811 H915  c    0.021694 *  0.547284 *  0.557353 *   0.11250    1.000000    
    812 H915  c    0.501094 *  0.248284 *  0.557353 *   0.11250    1.000000    
    813 H915  c    0.921752 *  0.658084 *  0.583900 *   0.11250    1.000000    
    814 H915  c    0.622752 *  0.137484 *  0.583900 *   0.11250    1.000000    
    815 H915  c    0.786904 *  0.508584 *  0.619720 *   0.11250    1.000000    
    816 H915  c    0.184944 *  0.897784 *  0.641332 *   0.11250    1.000000    
    817 H915  c    0.786904 *  0.286984 *  0.619720 *   0.11250    1.000000    
    818 H915  c    0.406544 *  0.897784 *  0.641332 *   0.11250    1.000000    
    819 H915  c    0.397704 *  0.897784 *  0.619720 *   0.11250    1.000000    
    820 H915  c    0.795744 *  0.508584 *  0.641332 *   0.11250    1.000000    
    821 H915  c    0.176104 *  0.897784 *  0.619720 *   0.11250    1.000000    
    822 H915  c    0.795744 *  0.286984 *  0.641332 *   0.11250    1.000000    
    823 H915  c    0.011952 *  0.748284 *  0.583900 *   0.11250    1.000000    
    824 H915  c    0.410894 *  0.158084 *  0.557353 *   0.11250    1.000000    
    825 H915  c    0.111894 *  0.637484 *  0.557353 *   0.11250    1.000000    
    826 H915  c    0.532552 *  0.047284 *  0.583900 *   0.11250    1.000000    
    827 H915  c    0.410894 *  0.637484 *  0.557353 *   0.11250    1.000000    
    828 H915  c    0.111894 *  0.158084 *  0.557353 *   0.11250    1.000000    
    829 H915  c    0.532552 *  0.748284 *  0.583900 *   0.11250    1.000000    
    830 H915  c    0.011952 *  0.047284 *  0.583900 *   0.11250    1.000000    
    831 H915  c    0.470754 *  0.637484 *  0.703699 *   0.11250    1.000000    
    832 H915  c    0.050095 *  0.047284 *  0.677151 *   0.11250    1.000000    
    833 H915  c    0.570695 *  0.748284 *  0.677151 *   0.11250    1.000000    
    834 H915  c    0.171754 *  0.158084 *  0.703699 *   0.11250    1.000000    
    835 H915  c    0.570695 *  0.047284 *  0.677151 *   0.11250    1.000000    
    836 H915  c    0.050095 *  0.748284 *  0.677151 *   0.11250    1.000000    
    837 H915  c    0.470754 *  0.158084 *  0.703699 *   0.11250    1.000000    
    838 H915  c    0.171754 *  0.637484 *  0.703699 *   0.11250    1.000000    
    839 H915  c    0.335905 *  0.008584 *  0.739518 *   0.11250    1.000000    
    840 H915  c    0.733945 *  0.397784 *  0.761130 *   0.11250    1.000000    
    841 H915  c    0.335905 *  0.786984 *  0.739518 *   0.11250    1.000000    
    842 H915  c    0.955545 *  0.397784 *  0.761130 *   0.11250    1.000000    
    843 H915  c    0.946705 *  0.397784 *  0.739518 *   0.11250    1.000000    
    844 H915  c    0.344745 *  0.008584 *  0.761130 *   0.11250    1.000000    
    845 H915  c    0.725105 *  0.397784 *  0.739518 *   0.11250    1.000000    
    846 H915  c    0.344745 *  0.786984 *  0.761130 *   0.11250    1.000000    
    847 H915  c    0.560954 *  0.248284 *  0.703699 *   0.11250    1.000000    
    848 H915  c    0.959895 *  0.658084 *  0.677151 *   0.11250    1.000000    
    849 H915  c    0.660895 *  0.137484 *  0.677151 *   0.11250    1.000000    
    850 H915  c    0.081554 *  0.547284 *  0.703699 *   0.11250    1.000000    
    851 H915  c    0.959895 *  0.137484 *  0.677151 *   0.11250    1.000000    
    852 H915  c    0.660895 *  0.658084 *  0.677151 *   0.11250    1.000000    
    853 H915  c    0.081554 *  0.248284 *  0.703699 *   0.11250    1.000000    
    854 H915  c    0.560954 *  0.547284 *  0.703699 *   0.11250    1.000000    
    855 Zn172 c    0.222082 *  0.810939 *  0.461233 *   2.00000    1.000000    
    856 Zn172 c    0.126721 *  0.897789 *  0.440424 *   2.00000    1.000000    
    857 Zn172 c    0.300411 *  0.897779 *  0.440424 *   2.00000    1.000000    
    858 Zn172 c    0.222072 *  0.984629 *  0.461233 *   2.00000    1.000000    
    859 Zn172 c    0.808922 *  0.397779 *  0.461233 *   2.00000    1.000000    
    860 Zn172 c    0.713561 *  0.484629 *  0.440424 *   2.00000    1.000000    
    861 Zn172 c    0.635232 *  0.397789 *  0.461233 *   2.00000    1.000000    
    862 Zn172 c    0.713571 *  0.310939 *  0.440424 *   2.00000    1.000000    
    863 Zn172 c    0.771084 *  0.310939 *  0.581031 *   2.00000    1.000000    
    864 Zn172 c    0.675722 *  0.397789 *  0.560222 *   2.00000    1.000000    
    865 Zn172 c    0.849412 *  0.397779 *  0.560222 *   2.00000    1.000000    
    866 Zn172 c    0.771074 *  0.484629 *  0.581031 *   2.00000    1.000000    
    867 Zn172 c    0.357924 *  0.897779 *  0.581031 *   2.00000    1.000000    
    868 Zn172 c    0.262562 *  0.984629 *  0.560222 *   2.00000    1.000000    
    869 Zn172 c    0.184234 *  0.897789 *  0.581031 *   2.00000    1.000000    
    870 Zn172 c    0.262572 *  0.810939 *  0.560222 *   2.00000    1.000000    
    871 Zn172 c    0.320085 *  0.810939 *  0.700829 *   2.00000    1.000000    
    872 Zn172 c    0.224723 *  0.897789 *  0.680021 *   2.00000    1.000000    
    873 Zn172 c    0.398414 *  0.897779 *  0.680021 *   2.00000    1.000000    
    874 Zn172 c    0.320075 *  0.984629 *  0.700829 *   2.00000    1.000000    
    875 Zn172 c    0.906925 *  0.397779 *  0.700829 *   2.00000    1.000000    
    876 Zn172 c    0.811564 *  0.484629 *  0.680021 *   2.00000    1.000000    
    877 Zn172 c    0.733235 *  0.397789 *  0.700829 *   2.00000    1.000000    
    878 Zn172 c    0.811574 *  0.310939 *  0.680021 *   2.00000    1.000000    
    879 O176  c    0.566110 *  0.527945 *  0.355117 *  -1.08000    1.000000    
    880 O176  c    0.566456 *  0.416035 *  0.350861 *  -1.08000    1.000000    
    881 O177  c    0.618814 *  0.487076 *  0.413515 *  -1.08000    1.000000    
    882 O177  c    0.621505 *  0.374156 *  0.412529 *  -1.08000    1.000000    
    883 C912  c    0.585714 *  0.510421 *  0.378293 *  -0.07025    1.000000    
    884 C912  c    0.587875 *  0.388313 *  0.375916 *  -0.07025    1.000000    
    885 C912  c    0.596805 *  0.502820 *  0.390050 *  -0.07025    1.000000    
    886 C912  c    0.598749 *  0.380767 *  0.387744 *  -0.07025    1.000000    
    887 C916  c    0.570415 *  0.465654 *  0.358318 *   1.07050    1.000000    
    888 C917  c    0.615459 *  0.432133 *  0.407736 *   1.07050    1.000000    
    889 C902  c    0.581562 *  0.453416 *  0.371205 *   0.00500    1.000000    
    890 C902  c    0.603338 *  0.438133 *  0.394769 *   0.00500    1.000000    
    891 H915  c    0.580629 *  0.561126 *  0.374483 *   0.11250    1.000000    
    892 H915  c    0.584659 *  0.343508 *  0.370365 *   0.11250    1.000000    
    893 H915  c    0.600520 *  0.547098 *  0.395734 *   0.11250    1.000000    
    894 H915  c    0.604048 *  0.330302 *  0.391630 *   0.11250    1.000000    
--------------------------------------------------------------------------------



  Molecule list generated from bond lengths :

  Total number of molecules =    22

--------------------------------------------------------------------------------
Molecule No./:  Atoms
Periodicity  :  
--------------------------------------------------------------------------------
     1  0    : O3   c   186 H22  c   187
     2  0    : O3   c   195 H22  c   196
     3  0    : O177 c   543 O177 c   544 O176 c   545 O176 c   546 C912 c   627
             : C912 c   628 C912 c   629 C912 c   630 C917 c   631 C916 c   632
             : C902 c   633 C902 c   634 H915 c   779 H915 c   780 H915 c   781
             : H915 c   782
     4  0    : O170 c   549 O170 c   551 O170 c   570 O170 c   572 C912 c   635
             : C912 c   637 C912 c   656 C912 c   658 C913 c   659 C913 c   670
             : C902 c   671 C902 c   682 H915 c   783 H915 c   785 H915 c   804
             : H915 c   806
     5  0    : O170 c   550 O170 c   552 O170 c   569 O170 c   571 C912 c   636
             : C912 c   638 C912 c   655 C912 c   657 C913 c   660 C913 c   669
             : C902 c   672 C902 c   681 H915 c   784 H915 c   786 H915 c   803
             : H915 c   805
     6  0    : O170 c   553 O170 c   555 O170 c   565 O170 c   567 C912 c   639
             : C912 c   641 C912 c   651 C912 c   653 C913 c   661 C913 c   667
             : C902 c   673 C902 c   679 H915 c   787 H915 c   789 H915 c   799
             : H915 c   801
     7  0    : O170 c   554 O170 c   556 O170 c   566 O170 c   568 C912 c   640
             : C912 c   642 C912 c   652 C912 c   654 C913 c   662 C913 c   668
             : C902 c   674 C902 c   680 H915 c   788 H915 c   790 H915 c   800
             : H915 c   802
     8  0    : O170 c   557 O170 c   559 O170 c   562 O170 c   564 C912 c   643
             : C912 c   645 C912 c   648 C912 c   650 C913 c   663 C913 c   666
             : C902 c   675 C902 c   678 H915 c   791 H915 c   793 H915 c   796
             : H915 c   798
     9  0    : O170 c   558 O170 c   560 O170 c   561 O170 c   563 C912 c   644
             : C912 c   646 C912 c   647 C912 c   649 C913 c   664 C913 c   665
             : C902 c   676 C902 c   677 H915 c   792 H915 c   794 H915 c   795
             : H915 c   797
    10  0    : O170 c   575 O170 c   577 O170 c   596 O170 c   598 C912 c   683
             : C912 c   685 C912 c   704 C912 c   706 C913 c   707 C913 c   718
             : C902 c   719 C902 c   730 H915 c   807 H915 c   809 H915 c   828
             : H915 c   830
    11  0    : O170 c   576 O170 c   578 O170 c   595 O170 c   597 C912 c   684
             : C912 c   686 C912 c   703 C912 c   705 C913 c   708 C913 c   717
             : C902 c   720 C902 c   729 H915 c   808 H915 c   810 H915 c   827
             : H915 c   829
    12  0    : O170 c   579 O170 c   581 O170 c   591 O170 c   593 C912 c   687
             : C912 c   689 C912 c   699 C912 c   701 C913 c   709 C913 c   715
             : C902 c   721 C902 c   727 H915 c   811 H915 c   813 H915 c   823
             : H915 c   825
    13  0    : O170 c   580 O170 c   582 O170 c   592 O170 c   594 C912 c   688
             : C912 c   690 C912 c   700 C912 c   702 C913 c   710 C913 c   716
             : C902 c   722 C902 c   728 H915 c   812 H915 c   814 H915 c   824
             : H915 c   826
    14  0    : O170 c   583 O170 c   585 O170 c   588 O170 c   590 C912 c   691
             : C912 c   693 C912 c   696 C912 c   698 C913 c   711 C913 c   714
             : C902 c   723 C902 c   726 H915 c   815 H915 c   817 H915 c   820
             : H915 c   822
    15  0    : O170 c   584 O170 c   586 O170 c   587 O170 c   589 C912 c   692
             : C912 c   694 C912 c   695 C912 c   697 C913 c   712 C913 c   713
             : C902 c   724 C902 c   725 H915 c   816 H915 c   818 H915 c   819
             : H915 c   821
    16  0    : O170 c   601 O170 c   603 O170 c   624 O170 c   626 C912 c   731
             : C912 c   733 C912 c   752 C912 c   754 C913 c   755 C913 c   766
             : C902 c   767 C902 c   778 H915 c   831 H915 c   833 H915 c   852
             : H915 c   854
    17  0    : O170 c   602 O170 c   604 O170 c   623 O170 c   625 C912 c   732
             : C912 c   734 C912 c   751 C912 c   753 C913 c   756 C913 c   765
             : C902 c   768 C902 c   777 H915 c   832 H915 c   834 H915 c   851
             : H915 c   853
    18  0    : O170 c   605 O170 c   607 O170 c   619 O170 c   621 C912 c   735
             : C912 c   737 C912 c   747 C912 c   749 C913 c   757 C913 c   763
             : C902 c   769 C902 c   775 H915 c   835 H915 c   837 H915 c   847
             : H915 c   849
    19  0    : O170 c   606 O170 c   608 O170 c   620 O170 c   622 C912 c   736
             : C912 c   738 C912 c   748 C912 c   750 C913 c   758 C913 c   764
             : C902 c   770 C902 c   776 H915 c   836 H915 c   838 H915 c   848
             : H915 c   850
    20  0    : O170 c   609 O170 c   611 O173 c   615 O172 c   617 H21  c   618
             : C912 c   739 C912 c   741 C912 c   744 C912 c   746 C913 c   759
             : C914 c   762 C902 c   771 C902 c   774 H915 c   839 H915 c   841
             : H915 c   844 H915 c   846
    21  0    : O173 c   610 O172 c   612 H21  c   613 O170 c   614 O170 c   616
             : C912 c   740 C912 c   742 C912 c   743 C912 c   745 C914 c   760
             : C913 c   761 C902 c   772 C902 c   773 H915 c   840 H915 c   842
             : H915 c   843 H915 c   845
[...]
   640 C912  c      1.057861           0.279353    1.180880   -0.489006
   641 C912  c      1.032098          -1.067574   -0.418648    0.540057
   642 C912  c      1.036035           1.054090    0.426721    0.553404
   643 C912  c      1.042921          -0.049451    0.703076   -1.048634
   644 C912  c      1.047783          -0.681251   -0.000654    1.065495
   645 C912  c      1.039147          -0.053548   -0.689700   -1.049917
   646 C912  c      1.068474           0.786840    0.002287    1.029966
   647 C912  c      1.053701           0.686247    0.001699   -1.069017
   648 C912  c      1.042188           0.055088    0.690550    1.053719
   649 C912  c      1.065307          -0.782648   -0.001339   -1.030725
   650 C912  c      1.044159           0.051021   -0.702248    1.050863
   651 C912  c      1.064201           0.283071    1.185382    0.502957
   652 C912  c      1.039090          -1.060138   -0.438328   -0.553370
   653 C912  c      1.030416           1.068573    0.431377   -0.537545
   654 C912  c      1.067323          -0.280439   -1.187382    0.491769
   655 C912  c      1.026216          -1.073872    0.437728   -0.563494
   656 C912  c      1.047230           1.064947   -0.419171   -0.513112
   657 C912  c      1.041363          -0.290668    1.174027    0.491662
   658 C912  c      1.094474           0.258932   -1.209899    0.480271
   659 C913  c    -17.533362           4.731040   -5.327802   -0.246321
   660 C913  c    -17.539273          -4.659806    5.361238   -0.455795
   661 C913  c    -17.537038           4.728832    5.316101   -0.311159
   662 C913  c    -17.533643          -4.662117   -5.368645   -0.436187
   663 C913  c    -17.487309           0.347457   -0.004783    6.885754
   664 C913  c    -17.488880          -0.154728   -0.007478   -7.005147
   665 C913  c    -17.493576           0.207530   -0.003426    7.023229
   666 C913  c    -17.488154          -0.357521    0.020740   -6.902049
   667 C913  c    -17.513829          -4.707899   -5.321346    0.329351
   668 C913  c    -17.499634           4.636920    5.370346    0.371680
   669 C913  c    -17.510230           4.597492   -5.406610    0.321262
   670 C913  c    -17.504277          -4.768156    5.263774    0.399540
   671 C902  c      1.185393          -2.299828    2.702024    0.033180
   672 C902  c      1.150936           2.289174   -2.714121    0.161845
   673 C902  c      1.162163          -2.303894   -2.700218    0.076956
   674 C902  c      1.170949           2.277945    2.724731    0.125200
   675 C902  c      1.244404          -0.177923    0.017904   -3.723353
   676 C902  c      1.208295           0.155111    0.003788    3.608636
   677 C902  c      1.210074          -0.161504    0.002430   -3.608592
   678 C902  c      1.248595           0.185179   -0.019532    3.726436
   679 C902  c      1.175043           2.298184    2.715095   -0.079927
   680 C902  c      1.183012          -2.288325   -2.728855   -0.110417
   681 C902  c      1.163675          -2.304565    2.712868   -0.125248
   682 C902  c      1.197581           2.282338   -2.728569   -0.080725
   683 C912  c      1.017810          -1.055694    0.444798    0.466003
   684 C912  c      1.077708           0.252001   -1.185370   -0.553317
   685 C912  c      1.080950          -0.250009    1.187394   -0.577222
   686 C912  c      1.027361           1.062864   -0.445202    0.477006
   687 C912  c      1.081081          -0.250784   -1.186830   -0.577100
   688 C912  c      1.076956           0.250308    1.186746   -0.551697
   689 C912  c      1.018410          -1.056125   -0.444747    0.467227
   690 C912  c      1.026779           1.063890    0.444202    0.473991
   691 C912  c      1.053789          -0.028660    0.704422   -1.050731
   692 C912  c      1.046898          -0.688834    0.000181    1.061431
   693 C912  c      1.053404          -0.028695   -0.703685   -1.050664
   694 C912  c      1.058100           0.757318   -0.000009    1.038922
   695 C912  c      1.045292           0.688312   -0.000340   -1.060177
   696 C912  c      1.055364           0.028316    0.703433    1.053359
   697 C912  c      1.058705          -0.758334   -0.000100   -1.038787
   698 C912  c      1.055356           0.028242   -0.703865    1.053305
   699 C912  c      1.079845           0.250412    1.186278    0.575911
   700 C912  c      1.026282          -1.063616   -0.444396   -0.473051
   701 C912  c      1.019521           1.057044    0.444773   -0.467674
   702 C912  c      1.077276          -0.249790   -1.186979    0.551897
   703 C912  c      1.028122          -1.063465    0.445270   -0.477021
   704 C912  c      1.018530           1.056355   -0.444934   -0.465988
   705 C912  c      1.076752          -0.251924    1.184685    0.552953
   706 C912  c      1.080314           0.249510   -1.187377    0.576186
   707 C913  c    -17.524150           4.791584   -5.264146   -0.055870
   708 C913  c    -17.518946          -4.733466    5.304672   -0.088099
   709 C913  c    -17.523679           4.792322    5.263929   -0.057421
   710 C913  c    -17.519618          -4.733035   -5.304099   -0.081764
   711 C913  c    -17.487548           0.199469    0.000495    6.938823
   712 C913  c    -17.493174          -0.114375   -0.001766   -6.980508
   713 C913  c    -17.488202           0.105646    0.000540    6.969859
   714 C913  c    -17.471292          -0.184593    0.000687   -6.919241
   715 C913  c    -17.525672          -4.781728   -5.277480    0.061540
   716 C913  c    -17.519449           4.733601    5.305687    0.094761
   717 C913  c    -17.518860           4.728017   -5.311541    0.091859
   718 C913  c    -17.525711          -4.784433    5.274385    0.063469
   719 C902  c      1.171455          -2.251475    2.742506   -0.151706
   720 C902  c      1.179513           2.263823   -2.748567   -0.101024
   721 C902  c      1.171598          -2.252897   -2.740774   -0.149222
   722 C902  c      1.179247           2.263070    2.750268   -0.104735
   723 C902  c      1.246476          -0.102341    0.000881   -3.703536
   724 C902  c      1.218451           0.106794    0.000763    3.644130
   725 C902  c      1.217156          -0.107437   -0.000247   -3.642378
   726 C902  c      1.251068           0.094990   -0.000792    3.708532
   727 C902  c      1.171430           2.250138    2.743163    0.144548
   728 C902  c      1.179360          -2.262770   -2.750994    0.100127
   729 C902  c      1.179489          -2.263577    2.748922    0.097726
   730 C902  c      1.171594           2.249165   -2.744975    0.146639
   731 C912  c      1.031233          -1.061878    0.432754    0.516471
   732 C912  c      1.068308           0.270278   -1.185584   -0.505842
   733 C912  c      1.073113          -0.270012    1.187249   -0.518659
   734 C912  c      1.033710           1.066312   -0.431516    0.520530
   735 C912  c      1.069820          -0.270520   -1.187179   -0.521126
   736 C912  c      1.071558           0.270593    1.184854   -0.504603
   737 C912  c      1.024306          -1.061457   -0.433516    0.514007
   738 C912  c      1.040910           1.066094    0.431388    0.524159
   739 C912  c      1.201664          -0.026072    0.643397   -0.961131
   740 C912  c      1.410676          -0.515073    0.013941    1.287177
   741 C912  c      1.254435          -0.023186   -0.684863   -0.923326
   742 C912  c      1.543082           0.625043    0.012209    1.375426
   743 C912  c      1.248229           0.673471   -0.003732   -0.922747
   744 C912  c      1.407800           0.031043    0.525984    1.280861
   745 C912  c      1.202838          -0.655508   -0.001262   -0.954050
   746 C912  c      1.542926           0.035222   -0.613180    1.378203
   747 C912  c      1.062309           0.272552    1.186488    0.512878
   748 C912  c      1.041232          -1.066071   -0.431888   -0.523817
   749 C912  c      1.032962           1.064098    0.432400   -0.521139
   750 C912  c      1.072321          -0.271176   -1.185899    0.504864
   751 C912  c      1.037833          -1.066669    0.431866   -0.524411
   752 C912  c      1.036471           1.064513   -0.431654   -0.519553
   753 C912  c      1.065947          -0.271461    1.186960    0.502338
   754 C912  c      1.068319           0.271535   -1.185847    0.514013
   755 C913  c    -17.517922           4.728052   -5.307833   -0.271699
   756 C913  c    -17.516583          -4.689588    5.334909   -0.276202
   757 C913  c    -17.520407           4.728677    5.306681   -0.268837
   758 C913  c    -17.513919          -4.687874   -5.337347   -0.277465
   759 C913  c    -17.437214           0.180597    0.014020    6.975167
   760 C914  c    -14.314053           0.550019   -0.038190   -4.520204
   761 C913  c    -17.450047           0.013892    0.036776    6.969411
   762 C914  c    -14.317460          -0.115284   -0.594591   -4.513731
   763 C913  c    -17.518664          -4.711648   -5.323622    0.275872
   764 C913  c    -17.512268           4.690497    5.336882    0.304081
   765 C913  c    -17.514031           4.690201   -5.335528    0.303055
   766 C913  c    -17.517199          -4.711385    5.325350    0.274634
   767 C902  c      1.177863          -2.284709    2.727510    0.019812
   768 C902  c      1.179468           2.289881   -2.730717    0.041853
   769 C902  c      1.173411          -2.285104   -2.728089    0.016134
   770 C902  c      1.183945           2.289319    2.729953    0.044909
   771 C902  c      1.368135          -0.091257   -0.023555   -3.598373
   772 C902  c      2.106737           0.123561    0.039993    4.376500
   773 C902  c      1.361698          -0.010725   -0.016145   -3.592681
   774 C902  c      2.104199           0.110897   -0.082602    4.374929
   775 C902  c      1.174774           2.283126    2.731218   -0.027695
   776 C902  c      1.185061          -2.288103   -2.731444   -0.053333
   777 C902  c      1.181007          -2.288594    2.732499   -0.054140
   778 C902  c      1.178752           2.283019   -2.730088   -0.026847
   779 H915  c     -1.999731          -0.528444   -0.043985   -0.264756
   780 H915  c     -1.900750           0.548337   -0.099033   -0.293958
   781 H915  c     -1.605235           0.583289   -0.211665    0.008302
   782 H915  c     -1.855126          -0.546398   -0.090553    0.079252
   783 H915  c     -1.889905          -0.130929   -0.477694    0.353687
   784 H915  c     -1.874719          -0.383630   -0.116098   -0.360574
   785 H915  c     -1.822857           0.402583    0.114270   -0.355160
   786 H915  c     -1.909138           0.120525    0.457012    0.370058
   787 H915  c     -1.852418           0.389484   -0.118192   -0.356632
   788 H915  c     -1.842840          -0.378859    0.113374   -0.366329
   789 H915  c     -1.904610          -0.120769    0.463144    0.371249
   790 H915  c     -1.905401           0.117995   -0.470958    0.366627
   791 H915  c     -1.916865           0.016010    0.541577    0.270276
   792 H915  c     -1.900092          -0.552955   -0.001406   -0.242308
   793 H915  c     -1.927043           0.013334   -0.548483    0.279170
   794 H915  c     -1.846187           0.519326    0.000757   -0.222328
   795 H915  c     -1.886269           0.551998    0.000484    0.230533
   796 H915  c     -1.920877          -0.013810    0.547805   -0.273727
   797 H915  c     -1.854314          -0.520024   -0.001652    0.231172
   798 H915  c     -1.915553          -0.016607   -0.543329   -0.272292
   799 H915  c     -1.825737          -0.388739    0.122629    0.368408
   800 H915  c     -1.895431          -0.129690    0.443766   -0.363030
   801 H915  c     -1.907153           0.125075   -0.447077   -0.364110
   802 H915  c     -1.825819           0.390347   -0.119431    0.371819
   803 H915  c     -1.892533          -0.146581   -0.412972   -0.352777
   804 H915  c     -1.908797           0.110393    0.493623   -0.367221
   805 H915  c     -1.862349           0.404952    0.103411    0.384210
   806 H915  c     -1.784905          -0.382410   -0.147346    0.343884
   807 H915  c     -1.949883          -0.112911   -0.500498    0.398995
   808 H915  c     -1.797850          -0.380255   -0.127237   -0.353276
   809 H915  c     -1.782261           0.365559    0.138019   -0.350558
   810 H915  c     -1.931257           0.122542    0.487174    0.386247
   811 H915  c     -1.782369           0.365608   -0.137687   -0.351123
   812 H915  c     -1.798702          -0.381409    0.127977   -0.351391
   813 H915  c     -1.948554          -0.113041    0.499239    0.398726
   814 H915  c     -1.932301           0.123446   -0.488822    0.385455
   815 H915  c     -1.902265           0.008937    0.542780    0.266428
   816 H915  c     -1.903007          -0.549942   -0.000191   -0.249031
   817 H915  c     -1.903124           0.008938   -0.543097    0.267073
   818 H915  c     -1.872064           0.525906   -0.000310   -0.238753
   819 H915  c     -1.905618           0.549822   -0.000271    0.249871
   820 H915  c     -1.899898          -0.006888    0.542459   -0.263550
   821 H915  c     -1.870479          -0.525191   -0.000066    0.236226
   822 H915  c     -1.899772          -0.006950   -0.542122   -0.263304
   823 H915  c     -1.784807          -0.366621    0.135506    0.352191
   824 H915  c     -1.934266          -0.122603    0.491018   -0.384208
   825 H915  c     -1.946427           0.114535   -0.497968   -0.397235
   826 H915  c     -1.797717           0.379825   -0.128360    0.351863
   827 H915  c     -1.930389          -0.122944   -0.486915   -0.384992
   828 H915  c     -1.948774           0.113881    0.500367   -0.397675
   829 H915  c     -1.799545           0.380202    0.126068    0.353605
   830 H915  c     -1.783417          -0.365830   -0.136720    0.351588
   831 H915  c     -1.917779          -0.119589   -0.472485    0.373522
   832 H915  c     -1.822811          -0.392686   -0.119851   -0.363366
   833 H915  c     -1.810683           0.382391    0.126490   -0.361221
   834 H915  c     -1.910966           0.125918    0.463931    0.364612
   835 H915  c     -1.812845           0.381964   -0.126746   -0.362322
   836 H915  c     -1.820798          -0.392680    0.118960   -0.363032
   837 H915  c     -1.926657          -0.119723    0.470893    0.370148
   838 H915  c     -1.901524           0.125564   -0.464559    0.368734
   839 H915  c     -1.836815           0.006496    0.489252    0.292057
   840 H915  c     -1.669884          -0.248829    0.003134   -0.162562
   841 H915  c     -1.781758           0.008881   -0.503167    0.333033
   842 H915  c     -1.394630           0.269122    0.003654    0.039002
   843 H915  c     -1.794713           0.508651    0.003410    0.341023
   844 H915  c     -1.674312          -0.006712    0.246705   -0.166276
   845 H915  c     -1.833077          -0.485416    0.005177    0.292402
   846 H915  c     -1.395186          -0.000817   -0.268946    0.040117
   847 H915  c     -1.826433          -0.378574    0.125423    0.355963
   848 H915  c     -1.902287          -0.124858    0.469780   -0.368235
   849 H915  c     -1.911495           0.122181   -0.473034   -0.375625
   850 H915  c     -1.818716           0.386200   -0.120406    0.363530
   851 H915  c     -1.904846          -0.125344   -0.469841   -0.368872
   852 H915  c     -1.908569           0.122487    0.473122   -0.374182
   853 H915  c     -1.825578           0.385329    0.122601    0.360371
   854 H915  c     -1.820293          -0.380561   -0.123246    0.358412
   855 Zn172 c    -20.922518          -0.031986   -0.352301    0.005314
   856 Zn172 c    -20.753647          -0.548309    0.006957    0.231895
   857 Zn172 c    -20.721826           0.512359    0.038961    0.201848
   858 Zn172 c    -20.895902          -0.042054    0.383136    0.020055
   859 Zn172 c    -20.682587           0.433780    0.023628   -0.033419
   860 Zn172 c    -20.869646           0.142739    0.349632   -0.187638
   861 Zn172 c    -20.571079          -0.397048    0.021302    0.004681
   862 Zn172 c    -20.705114           0.119569   -0.147829   -0.317926
   863 Zn172 c    -20.971684          -0.027907   -0.225832    0.094495
   864 Zn172 c    -20.608458          -0.524434    0.001704    0.092384
   865 Zn172 c    -20.506240           0.507340   -0.000323    0.001694
   866 Zn172 c    -20.968306          -0.028299    0.230610    0.094639
   867 Zn172 c    -20.622241           0.536585    0.001818   -0.140597
   868 Zn172 c    -20.994675           0.037858    0.265241   -0.050410
   869 Zn172 c    -20.538925          -0.544382    0.001627   -0.084571
   870 Zn172 c    -20.982976           0.040676   -0.262366   -0.061372
   871 Zn172 c    -20.884644          -0.022978   -0.269549    0.126129
   872 Zn172 c    -20.677170          -0.485754    0.000995    0.114189
   873 Zn172 c    -20.611362           0.463944    0.001461    0.057340
   874 Zn172 c    -20.891816          -0.021935    0.277349    0.115479
   875 Zn172 c    -20.678221           0.495841   -0.001173   -0.145520
   876 Zn172 c    -20.903525           0.018965    0.306888   -0.069402
   877 Zn172 c    -20.651245          -0.511199   -0.003557   -0.141142
   878 Zn172 c    -20.903833           0.019037   -0.305707   -0.070663
   879 O176  c     17.053036           0.497550   -4.268462   -3.090979
   880 O176  c     18.945805           0.417596    3.040528   -1.066916
   881 O177  c     14.940955           0.063056   -4.569287    0.228853
   882 O177  c     14.715522          -0.340441    5.027942    0.719427
   883 C912  c      1.545610          -0.240868    0.727226   -1.197938
   884 C912  c      1.752701          -0.313879   -0.628720   -1.508386
   885 C912  c      1.283997           0.126229    0.549285    0.962819
   886 C912  c      1.396289           0.130519   -0.859035    0.805404
   887 C916  c    -15.093320           1.019698   -2.267564    5.473873
   888 C917  c    -17.400731          -1.260415    0.390880   -6.937487
   889 C902  c      2.148135          -0.736595    0.389224   -4.107885
   890 C902  c      1.417450           0.586724   -0.366741    3.441393
   891 H915  c     -1.460995           0.023214    0.295921    0.143079
   892 H915  c     -0.881072          -0.129133   -0.369115   -0.483154
   893 H915  c     -1.800537          -0.098379    0.531664   -0.327731
   894 H915  c     -1.577621          -0.066871   -0.474664   -0.331793
-------------------------------------------------------------------------------

  Total time to end of lattice properties =    4070.9786 s


  Peak dynamic memory used =     148.21 MB 


  Timing analysis for GULP :

--------------------------------------------------------------------------------
  Task / Subroutine                                          Time (Seconds)
--------------------------------------------------------------------------------
  Calculation of reciprocal space energy and derivatives       1051.1018
  Calculation of real space energy and derivatives             2518.1024
  Calculation of three-body energy and derivatives                8.1012
  Calculation of four-body energy and derivatives                 8.7403
  Calculation of molecules and connectivity                       0.3692
  Calculation of phonons                                         27.2701
  Calculation of scattering                                       0.0000
  Calculation of matrix inversion                               447.5083
  Symmetry generation of equivalent positions                     0.0078
  Global summation overhead                                       0.0092
--------------------------------------------------------------------------------
  Total CPU time                                               4070.9786
--------------------------------------------------------------------------------


  Dump file written as fit1.res                                                


  Job Finished at 19:20.04 27th May        2016                               

