********************************************************************************
*                       GENERAL UTILITY LATTICE PROGRAM                        *
*                                 Julian Gale                                  *
*                      Nanochemistry Research Institute                        *
*                           Department of Chemistry                            *
*                    Curtin University, Western Australia                      *
********************************************************************************
* Version = 4.4.0 * Last modified = 31st March 2015                            *
********************************************************************************
*  optimise     - perform optimisation run                                     *
*  conv         - constant volume calculation                                  *
*  property     - calculate properties for final geometry                      *
*  phonon       - calculate phonons for final geometry                         *
*  potential    - calculate electrostatic site potentials                      *
*  molmec       - molecule option activated, Coulomb subtract 1-2/1-3 terms    *
*  fix_molecule - fix atoms of molecule as at the start of the run             *
*  compare      - compare initial and final structures                         *
********************************************************************************

  Job Started  at 09:41.43 18th May        2016                               

  Number of CPUs =     1


  Total number of configurations input =   1

********************************************************************************
*  Input for Configuration =   1                                               *
********************************************************************************

  Formula = Ti180O446H84C160Zn24                                        

  Number of irreducible atoms/shells =     894


  Total number atoms/shells =     894

  Dimensionality = 3               :  Bulk   



  Cartesian lattice vectors (Angstroms) :

       17.724000    0.000000    0.000000
        0.000000   19.461000    0.000000
        0.000000    0.000000  114.868482

  Cell parameters (Angstroms/Degrees):

  a =      17.7240    alpha =  90.0000
  b =      19.4610    beta  =  90.0000
  c =     114.8685    gamma =  90.0000

  Initial cell volume =       39621.213782 Angs**3

  Temperature of configuration =  0.000     K 

  Pressure of configuration =         0.000 GPa 

  Fractional coordinates of asymmetric unit :

--------------------------------------------------------------------------------
   No.  Atomic       x           y          z         Charge      Occupancy
        Label      (Frac)      (Frac)     (Frac)        (e)         (Frac)  
--------------------------------------------------------------------------------
      1 Ti    c    0.320000    0.733333    0.339268     2.43600    1.000000    
      2 Ti    c    0.148783 *  0.399280 *  0.341320 *   2.43600    1.000000    
      3 Ti    c    0.981999 *  0.399822 *  0.341320 *   2.43600    1.000000    
      4 Ti    c    0.815070 *  0.399939 *  0.341392 *   2.43600    1.000000    
      5 Ti    c    0.650200 *  0.399590 *  0.339843 *   2.43600    1.000000    
      6 Ti    c    0.481079 *  0.400011 *  0.339984 *   2.43600    1.000000    
      7 Ti    c    0.316098 *  0.399488 *  0.341363 *   2.43600    1.000000    
      8 Ti    c    0.148641 *  0.065894 *  0.340812 *   2.43600    1.000000    
      9 Ti    c    0.982193 *  0.065942 *  0.341276 *   2.43600    1.000000    
     10 Ti    c    0.815558 *  0.066295 *  0.341295 *   2.43600    1.000000    
     11 Ti    c    0.648919 *  0.065818 *  0.341223 *   2.43600    1.000000    
     12 Ti    c    0.481859 *  0.065951 *  0.341239 *   2.43600    1.000000    
     13 Ti    c    0.315432 *  0.065856 *  0.341249 *   2.43600    1.000000    
     14 Ti    c    0.143898 *  0.733417 *  0.338652 *   2.43600    1.000000    
     15 Ti    c    0.981359 *  0.733220 *  0.341407 *   2.43600    1.000000    
     16 Ti    c    0.815520 *  0.732761 *  0.341387 *   2.43600    1.000000    
     17 Ti    c    0.649130 *  0.732084 *  0.341384 *   2.43600    1.000000    
     18 Ti    c    0.483032 *  0.731873 *  0.341465 *   2.43600    1.000000    
     19 Ti    c    0.065428 *  0.232319 *  0.339124 *   2.43600    1.000000    
     20 Ti    c    0.898503 *  0.232938 *  0.339151 *   2.43600    1.000000    
     21 Ti    c    0.731729 *  0.233526 *  0.339080 *   2.43600    1.000000    
     22 Ti    c    0.899642 *  0.899396 *  0.339146 *   2.43600    1.000000    
     23 Ti    c    0.565086 *  0.898391 *  0.339150 *   2.43600    1.000000    
     24 Ti    c    0.397845 *  0.899352 *  0.339162 *   2.43600    1.000000    
     25 Ti    c    0.898560 *  0.566430 *  0.339033 *   2.43600    1.000000    
     26 Ti    c    0.565467 *  0.564965 *  0.340453 *   2.43600    1.000000    
     27 Ti    c    0.398967 *  0.567060 *  0.338867 *   2.43600    1.000000    
     28 Ti    c    0.232494 *  0.231979 *  0.339091 *   2.43600    1.000000    
     29 Ti    c    0.565525 *  0.230828 *  0.339382 *   2.43600    1.000000    
     30 Ti    c    0.399280 *  0.233482 *  0.339110 *   2.43600    1.000000    
     31 Ti    c    0.231047 *  0.900908 *  0.340596 *   2.43600    1.000000    
     32 Ti    c    0.066131 *  0.899860 *  0.340699 *   2.43600    1.000000    
     33 Ti    c    0.732402 *  0.899273 *  0.339189 *   2.43600    1.000000    
     34 Ti    c    0.232395 *  0.563959 *  0.338656 *   2.43600    1.000000    
     35 Ti    c    0.065455 *  0.567356 *  0.339047 *   2.43600    1.000000    
     36 Ti    c    0.731969 *  0.566608 *  0.338844 *   2.43600    1.000000    
     37 Ti    c    0.315475 *  0.566181 *  0.311578 *   2.43600    1.000000    
     38 Ti    c    0.148831 *  0.232844 *  0.311972 *   2.43600    1.000000    
     39 Ti    c    0.982077 *  0.232907 *  0.311974 *   2.43600    1.000000    
     40 Ti    c    0.815535 *  0.232772 *  0.311903 *   2.43600    1.000000    
     41 Ti    c    0.648758 *  0.232567 *  0.312022 *   2.43600    1.000000    
     42 Ti    c    0.482248 *  0.232562 *  0.312030 *   2.43600    1.000000    
     43 Ti    c    0.315482 *  0.232773 *  0.311880 *   2.43600    1.000000    
     44 Ti    c    0.148717 *  0.899727 *  0.313401 *   2.43600    1.000000    
     45 Ti    c    0.982315 *  0.899598 *  0.312461 *   2.43600    1.000000    
     46 Ti    c    0.815399 *  0.899411 *  0.311988 *   2.43600    1.000000    
     47 Ti    c    0.648836 *  0.899194 *  0.312018 *   2.43600    1.000000    
     48 Ti    c    0.482285 *  0.899260 *  0.311932 *   2.43600    1.000000    
     49 Ti    c    0.315276 *  0.899560 *  0.312456 *   2.43600    1.000000    
     50 Ti    c    0.148600 *  0.566131 *  0.311741 *   2.43600    1.000000    
     51 Ti    c    0.982034 *  0.566097 *  0.311837 *   2.43600    1.000000    
     52 Ti    c    0.815657 *  0.566272 *  0.311752 *   2.43600    1.000000    
     53 Ti    c    0.648500 *  0.565820 *  0.312421 *   2.43600    1.000000    
     54 Ti    c    0.482607 *  0.565761 *  0.312391 *   2.43600    1.000000    
     55 Ti    c    0.400485 *  0.732420 *  0.312184 *   2.43600    1.000000    
     56 Ti    c    0.231967 *  0.399446 *  0.312707 *   2.43600    1.000000    
     57 Ti    c    0.065501 *  0.399300 *  0.312735 *   2.43600    1.000000    
     58 Ti    c    0.899035 *  0.399521 *  0.312738 *   2.43600    1.000000    
     59 Ti    c    0.733014 *  0.399104 *  0.312398 *   2.43600    1.000000    
     60 Ti    c    0.565443 *  0.399102 *  0.312397 *   2.43600    1.000000    
     61 Ti    c    0.398061 *  0.398892 *  0.312416 *   2.43600    1.000000    
     62 Ti    c    0.232291 *  0.066259 *  0.312721 *   2.43600    1.000000    
     63 Ti    c    0.065336 *  0.066291 *  0.312733 *   2.43600    1.000000    
     64 Ti    c    0.898760 *  0.066168 *  0.312773 *   2.43600    1.000000    
     65 Ti    c    0.732140 *  0.065903 *  0.312752 *   2.43600    1.000000    
     66 Ti    c    0.565463 *  0.065889 *  0.312740 *   2.43600    1.000000    
     67 Ti    c    0.398835 *  0.066045 *  0.312747 *   2.43600    1.000000    
     68 Ti    c    0.232288 *  0.733027 *  0.312246 *   2.43600    1.000000    
     69 Ti    c    0.063574 *  0.732934 *  0.312072 *   2.43600    1.000000    
     70 Ti    c    0.898295 *  0.732891 *  0.312752 *   2.43600    1.000000    
     71 Ti    c    0.732155 *  0.732481 *  0.312784 *   2.43600    1.000000    
     72 Ti    c    0.565998 *  0.732448 *  0.312824 *   2.43600    1.000000    
     73 Ti    c    0.315511 *  0.732721 *  0.284599 *   2.43600    1.000000    
     74 Ti    c    0.148754 *  0.399430 *  0.284856 *   2.43600    1.000000    
     75 Ti    c    0.982212 *  0.399421 *  0.284869 *   2.43600    1.000000    
     76 Ti    c    0.815650 *  0.399381 *  0.284810 *   2.43600    1.000000    
     77 Ti    c    0.648827 *  0.399345 *  0.284673 *   2.43600    1.000000    
     78 Ti    c    0.482152 *  0.399341 *  0.284671 *   2.43600    1.000000    
     79 Ti    c    0.315350 *  0.399388 *  0.284801 *   2.43600    1.000000    
     80 Ti    c    0.148804 *  0.066044 *  0.284977 *   2.43600    1.000000    
     81 Ti    c    0.982150 *  0.066037 *  0.285002 *   2.43600    1.000000    
     82 Ti    c    0.815461 *  0.066022 *  0.284968 *   2.43600    1.000000    
     83 Ti    c    0.648813 *  0.066024 *  0.284930 *   2.43600    1.000000    
     84 Ti    c    0.482164 *  0.065983 *  0.284951 *   2.43600    1.000000    
     85 Ti    c    0.315482 *  0.066002 *  0.284990 *   2.43600    1.000000    
     86 Ti    c    0.148800 *  0.732822 *  0.284520 *   2.43600    1.000000    
     87 Ti    c    0.981822 *  0.732807 *  0.284751 *   2.43600    1.000000    
     88 Ti    c    0.815344 *  0.732705 *  0.284948 *   2.43600    1.000000    
     89 Ti    c    0.648846 *  0.732648 *  0.284937 *   2.43600    1.000000    
     90 Ti    c    0.482506 *  0.732676 *  0.284788 *   2.43600    1.000000    
     91 Ti    c    0.399294 *  0.566000 *  0.284870 *   2.43600    1.000000    
     92 Ti    c    0.232108 *  0.232668 *  0.284893 *   2.43600    1.000000    
     93 Ti    c    0.065484 *  0.232730 *  0.284916 *   2.43600    1.000000    
     94 Ti    c    0.898861 *  0.232697 *  0.284902 *   2.43600    1.000000    
     95 Ti    c    0.732114 *  0.232723 *  0.284899 *   2.43600    1.000000    
     96 Ti    c    0.565482 *  0.232690 *  0.284920 *   2.43600    1.000000    
     97 Ti    c    0.398872 *  0.232716 *  0.284900 *   2.43600    1.000000    
     98 Ti    c    0.231700 *  0.899366 *  0.285432 *   2.43600    1.000000    
     99 Ti    c    0.065879 *  0.899406 *  0.285441 *   2.43600    1.000000    
    100 Ti    c    0.899147 *  0.899400 *  0.285107 *   2.43600    1.000000    
    101 Ti    c    0.732208 *  0.899370 *  0.284963 *   2.43600    1.000000    
    102 Ti    c    0.565484 *  0.899333 *  0.284946 *   2.43600    1.000000    
    103 Ti    c    0.398449 *  0.899312 *  0.285072 *   2.43600    1.000000    
    104 Ti    c    0.232134 *  0.566060 *  0.284698 *   2.43600    1.000000    
    105 Ti    c    0.065362 *  0.566173 *  0.284754 *   2.43600    1.000000    
    106 Ti    c    0.898727 *  0.566002 *  0.284800 *   2.43600    1.000000    
    107 Ti    c    0.731802 *  0.565941 *  0.284946 *   2.43600    1.000000    
    108 Ti    c    0.565558 *  0.565912 *  0.285098 *   2.43600    1.000000    
    109 Ti    c    0.315603 *  0.566046 *  0.257725 *   2.43600    1.000000    
    110 Ti    c    0.148813 *  0.232719 *  0.257861 *   2.43600    1.000000    
    111 Ti    c    0.982158 *  0.232710 *  0.257863 *   2.43600    1.000000    
    112 Ti    c    0.815490 *  0.232700 *  0.257851 *   2.43600    1.000000    
    113 Ti    c    0.648812 *  0.232687 *  0.257849 *   2.43600    1.000000    
    114 Ti    c    0.482159 *  0.232692 *  0.257850 *   2.43600    1.000000    
    115 Ti    c    0.315492 *  0.232709 *  0.257846 *   2.43600    1.000000    
    116 Ti    c    0.148817 *  0.899374 *  0.258239 *   2.43600    1.000000    
    117 Ti    c    0.982333 *  0.899378 *  0.258130 *   2.43600    1.000000    
    118 Ti    c    0.815597 *  0.899388 *  0.257971 *   2.43600    1.000000    
    119 Ti    c    0.648824 *  0.899389 *  0.257908 *   2.43600    1.000000    
    120 Ti    c    0.482035 *  0.899375 *  0.257940 *   2.43600    1.000000    
    121 Ti    c    0.315285 *  0.899370 *  0.258098 *   2.43600    1.000000    
    122 Ti    c    0.148810 *  0.566055 *  0.257693 *   2.43600    1.000000    
    123 Ti    c    0.982092 *  0.566060 *  0.257741 *   2.43600    1.000000    
    124 Ti    c    0.815376 *  0.566035 *  0.257815 *   2.43600    1.000000    
    125 Ti    c    0.648749 *  0.566031 *  0.257916 *   2.43600    1.000000    
    126 Ti    c    0.482273 *  0.566042 *  0.257880 *   2.43600    1.000000    
    127 Ti    c    0.398968 *  0.732735 *  0.256966 *   2.43600    1.000000    
    128 Ti    c    0.232106 *  0.399379 *  0.257007 *   2.43600    1.000000    
    129 Ti    c    0.065476 *  0.399374 *  0.257034 *   2.43600    1.000000    
    130 Ti    c    0.898864 *  0.399381 *  0.257022 *   2.43600    1.000000    
    131 Ti    c    0.732228 *  0.399361 *  0.256979 *   2.43600    1.000000    
    132 Ti    c    0.565493 *  0.399356 *  0.256946 *   2.43600    1.000000    
    133 Ti    c    0.398756 *  0.399370 *  0.256967 *   2.43600    1.000000    
    134 Ti    c    0.232135 *  0.066042 *  0.257183 *   2.43600    1.000000    
    135 Ti    c    0.065492 *  0.066026 *  0.257190 *   2.43600    1.000000    
    136 Ti    c    0.898861 *  0.066013 *  0.257166 *   2.43600    1.000000    
    137 Ti    c    0.732179 *  0.066021 *  0.257134 *   2.43600    1.000000    
    138 Ti    c    0.565462 *  0.066008 *  0.257127 *   2.43600    1.000000    
    139 Ti    c    0.398770 *  0.066007 *  0.257153 *   2.43600    1.000000    
    140 Ti    c    0.232181 *  0.732717 *  0.256898 *   2.43600    1.000000    
    141 Ti    c    0.065326 *  0.732735 *  0.256946 *   2.43600    1.000000    
    142 Ti    c    0.898669 *  0.732740 *  0.257047 *   2.43600    1.000000    
    143 Ti    c    0.732140 *  0.732723 *  0.257106 *   2.43600    1.000000    
    144 Ti    c    0.565606 *  0.732743 *  0.257061 *   2.43600    1.000000    
    145 Ti    c    0.398951 *  0.566080 *  0.230627 *   2.43600    1.000000    
    146 Ti    c    0.315507 *  0.732833 *  0.228422 *   2.43600    1.000000    
    147 Ti    c    0.232141 *  0.232645 *  0.230687 *   2.43600    1.000000    
    148 Ti    c    0.148805 *  0.399351 *  0.228479 *   2.43600    1.000000    
    149 Ti    c    0.065488 *  0.232654 *  0.230695 *   2.43600    1.000000    
    150 Ti    c    0.982145 *  0.399352 *  0.228487 *   2.43600    1.000000    
    151 Ti    c    0.898836 *  0.232661 *  0.230690 *   2.43600    1.000000    
    152 Ti    c    0.815491 *  0.399354 *  0.228468 *   2.43600    1.000000    
    153 Ti    c    0.732164 *  0.232658 *  0.230678 *   2.43600    1.000000    
    154 Ti    c    0.648834 *  0.399353 *  0.228436 *   2.43600    1.000000    
    155 Ti    c    0.565485 *  0.232667 *  0.230673 *   2.43600    1.000000    
    156 Ti    c    0.482164 *  0.399355 *  0.228429 *   2.43600    1.000000    
    157 Ti    c    0.398813 *  0.232665 *  0.230677 *   2.43600    1.000000    
    158 Ti    c    0.315481 *  0.399356 *  0.228455 *   2.43600    1.000000    
    159 Ti    c    0.232040 *  0.899398 *  0.230944 *   2.43600    1.000000    
    160 Ti    c    0.148809 *  0.065952 *  0.228656 *   2.43600    1.000000    
    161 Ti    c    0.065564 *  0.899392 *  0.230960 *   2.43600    1.000000    
    162 Ti    c    0.982196 *  0.065955 *  0.228647 *   2.43600    1.000000    
    163 Ti    c    0.898968 *  0.899403 *  0.230855 *   2.43600    1.000000    
    164 Ti    c    0.815536 *  0.065968 *  0.228613 *   2.43600    1.000000    
    165 Ti    c    0.732229 *  0.899403 *  0.230765 *   2.43600    1.000000    
    166 Ti    c    0.648828 *  0.065976 *  0.228590 *   2.43600    1.000000    
    167 Ti    c    0.565442 *  0.899392 *  0.230749 *   2.43600    1.000000    
    168 Ti    c    0.482115 *  0.065965 *  0.228603 *   2.43600    1.000000    
    169 Ti    c    0.398666 *  0.899400 *  0.230823 *   2.43600    1.000000    
    170 Ti    c    0.315437 *  0.065956 *  0.228638 *   2.43600    1.000000    
    171 Ti    c    0.232200 *  0.566094 *  0.230548 *   2.43600    1.000000    
    172 Ti    c    0.148790 *  0.732846 *  0.228410 *   2.43600    1.000000    
    173 Ti    c    0.065434 *  0.566095 *  0.230558 *   2.43600    1.000000    
    174 Ti    c    0.982104 *  0.732843 *  0.228479 *   2.43600    1.000000    
    175 Ti    c    0.898725 *  0.566078 *  0.230615 *   2.43600    1.000000    
    176 Ti    c    0.815462 *  0.732819 *  0.228550 *   2.43600    1.000000    
    177 Ti    c    0.732072 *  0.566078 *  0.230687 *   2.43600    1.000000    
    178 Ti    c    0.648842 *  0.732806 *  0.228554 *   2.43600    1.000000    
    179 Ti    c    0.565528 *  0.566075 *  0.230708 *   2.43600    1.000000    
    180 Ti    c    0.482200 *  0.732818 *  0.228493 *   2.43600    1.000000    
    181 O2    c    0.394517 *  0.730355 *  0.349533 *  -1.21800    1.000000    
    182 O2    c    0.232725 *  0.402883 *  0.350045 *  -1.21800    1.000000    
    183 O2    c    0.065541 *  0.400534 *  0.350070 *  -1.21800    1.000000    
    184 O2    c    0.898324 *  0.400529 *  0.350119 *  -1.21800    1.000000    
    185 O2    c    0.728087 *  0.400462 *  0.349784 *  -1.21800    1.000000    
    186 O3    c    0.566705 *  0.232630 *  0.356059 *  -0.33800    1.000000    
    187 H22   c    0.566427 *  0.203894 *  0.362910 *   0.12000    1.000000    
    188 O2    c    0.402554 *  0.400722 *  0.349802 *  -1.21800    1.000000    
    189 O2    c    0.231454 *  0.067869 *  0.349792 *  -1.21800    1.000000    
    190 O2    c    0.066199 *  0.069327 *  0.349820 *  -1.21800    1.000000    
    191 O2    c    0.898664 *  0.068727 *  0.350049 *  -1.21800    1.000000    
    192 O2    c    0.731997 *  0.065875 *  0.350024 *  -1.21800    1.000000    
    193 O2    c    0.565426 *  0.067908 *  0.349944 *  -1.21800    1.000000    
    194 O2    c    0.398863 *  0.066942 *  0.350037 *  -1.21800    1.000000    
    195 O2    c    0.231083 *  0.733503 *  0.349824 *  -1.21800    1.000000    
    196 O2    c    0.070840 *  0.728031 *  0.349167 *  -1.21800    1.000000    
    197 O2    c    0.898894 *  0.730332 *  0.350228 *  -1.21800    1.000000    
    198 O2    c    0.732334 *  0.733134 *  0.350146 *  -1.21800    1.000000    
    199 O3    c    0.565579 *  0.733369 *  0.350209 *  -0.33800    1.000000    
    200 H22   c    0.565579 *  0.733369 *  0.358915 *   0.12000    1.000000    
    201 O2    c    0.149068 *  0.172986 *  0.340293 *  -1.21800    1.000000    
    202 O2    c    0.981459 *  0.173163 *  0.340507 *  -1.21800    1.000000    
    203 O2    c    0.814679 *  0.173020 *  0.340518 *  -1.21800    1.000000    
    204 O2    c    0.650191 *  0.172211 *  0.340270 *  -1.21800    1.000000    
    205 O2    c    0.481015 *  0.172413 *  0.340274 *  -1.21800    1.000000    
    206 O2    c    0.316475 *  0.173138 *  0.340554 *  -1.21800    1.000000    
    207 O2    c    0.150964 *  0.831096 *  0.338698 *  -1.21800    1.000000    
    208 O2    c    0.980017 *  0.836054 *  0.340493 *  -1.21800    1.000000    
    209 O2    c    0.815693 *  0.838400 *  0.340708 *  -1.21800    1.000000    
    210 O2    c    0.648804 *  0.838388 *  0.340625 *  -1.21800    1.000000    
    211 O2    c    0.480876 *  0.837560 *  0.340798 *  -1.21800    1.000000    
    212 O2    c    0.316682 *  0.833761 *  0.340186 *  -1.21800    1.000000    
    213 O2    c    0.982350 *  0.505977 *  0.340504 *  -1.21800    1.000000    
    214 O2    c    0.477246 *  0.502001 *  0.338856 *  -1.21800    1.000000    
    215 O2    c    0.316248 *  0.506362 *  0.340548 *  -1.21800    1.000000    
    216 O2    c    0.148266 *  0.506870 *  0.340522 *  -1.21800    1.000000    
    217 O2    c    0.815378 *  0.505193 *  0.340592 *  -1.21800    1.000000    
    218 O2    c    0.653317 *  0.501548 *  0.338913 *  -1.21800    1.000000    
    219 O2    c    0.312519 *  0.629189 *  0.340495 *  -1.21800    1.000000    
    220 O2    c    0.149462 *  0.294027 *  0.340708 *  -1.21800    1.000000    
    221 O2    c    0.982140 *  0.294155 *  0.340646 *  -1.21800    1.000000    
    222 O2    c    0.814891 *  0.294303 *  0.340838 *  -1.21800    1.000000    
    223 O2    c    0.647486 *  0.295910 *  0.340438 *  -1.21800    1.000000    
    224 O2    c    0.483413 *  0.296042 *  0.340500 *  -1.21800    1.000000    
    225 O2    c    0.315650 *  0.294408 *  0.340847 *  -1.21800    1.000000    
    226 O2    c    0.979386 *  0.961794 *  0.340379 *  -1.21800    1.000000    
    227 O2    c    0.482416 *  0.959393 *  0.340683 *  -1.21800    1.000000    
    228 O2    c    0.318112 *  0.960767 *  0.340403 *  -1.21800    1.000000    
    229 O2    c    0.152291 *  0.629069 *  0.340161 *  -1.21800    1.000000    
    230 O2    c    0.982309 *  0.626828 *  0.340611 *  -1.21800    1.000000    
    231 O2    c    0.815448 *  0.626666 *  0.340551 *  -1.21800    1.000000    
    232 O2    c    0.650125 *  0.626917 *  0.340570 *  -1.21800    1.000000    
    233 O2    c    0.480021 *  0.627333 *  0.340656 *  -1.21800    1.000000    
    234 O2    c    0.148961 *  0.964242 *  0.338861 *  -1.21800    1.000000    
    235 O2    c    0.815348 *  0.960065 *  0.340672 *  -1.21800    1.000000    
    236 O2    c    0.648303 *  0.959659 *  0.340627 *  -1.21800    1.000000    
    237 O2    c    0.401901 *  0.731273 *  0.328812 *  -1.21800    1.000000    
    238 O2    c    0.232341 *  0.400635 *  0.329405 *  -1.21800    1.000000    
    239 O2    c    0.065891 *  0.399670 *  0.329384 *  -1.21800    1.000000    
    240 O2    c    0.898828 *  0.399653 *  0.329407 *  -1.21800    1.000000    
    241 O2    c    0.734354 *  0.396805 *  0.329022 *  -1.21800    1.000000    
    242 O2    c    0.565317 *  0.396726 *  0.329478 *  -1.21800    1.000000    
    243 O2    c    0.396587 *  0.396944 *  0.329058 *  -1.21800    1.000000    
    244 O2    c    0.234008 *  0.069376 *  0.329162 *  -1.21800    1.000000    
    245 O2    c    0.063988 *  0.069374 *  0.329162 *  -1.21800    1.000000    
    246 O2    c    0.897685 *  0.066908 *  0.329328 *  -1.21800    1.000000    
    247 O2    c    0.731994 *  0.065601 *  0.329340 *  -1.21800    1.000000    
    248 O2    c    0.565437 *  0.065736 *  0.329326 *  -1.21800    1.000000    
    249 O2    c    0.399547 *  0.066011 *  0.329309 *  -1.21800    1.000000    
    250 O2    c    0.233604 *  0.729336 *  0.329899 *  -1.21800    1.000000    
    251 O2    c    0.060771 *  0.729168 *  0.328562 *  -1.21800    1.000000    
    252 O2    c    0.897786 *  0.731906 *  0.329407 *  -1.21800    1.000000    
    253 O2    c    0.732271 *  0.732429 *  0.329417 *  -1.21800    1.000000    
    254 O2    c    0.565499 *  0.733317 *  0.329487 *  -1.21800    1.000000    
    255 O2    c    0.396055 *  0.568270 *  0.322683 *  -1.21800    1.000000    
    256 O2    c    0.232673 *  0.233761 *  0.322819 *  -1.21800    1.000000    
    257 O2    c    0.065463 *  0.233714 *  0.322832 *  -1.21800    1.000000    
    258 O2    c    0.898400 *  0.233661 *  0.322856 *  -1.21800    1.000000    
    259 O2    c    0.732277 *  0.234024 *  0.322824 *  -1.21800    1.000000    
    260 O2    c    0.565483 *  0.232969 *  0.322950 *  -1.21800    1.000000    
    261 O2    c    0.398638 *  0.234155 *  0.322838 *  -1.21800    1.000000    
    262 O2    c    0.235333 *  0.898852 *  0.323470 *  -1.21800    1.000000    
    263 O2    c    0.062678 *  0.898344 *  0.323528 *  -1.21800    1.000000    
    264 O2    c    0.897116 *  0.899022 *  0.322893 *  -1.21800    1.000000    
    265 O2    c    0.731873 *  0.899304 *  0.322898 *  -1.21800    1.000000    
    266 O2    c    0.565290 *  0.898687 *  0.322880 *  -1.21800    1.000000    
    267 O2    c    0.400508 *  0.898398 *  0.322917 *  -1.21800    1.000000    
    268 O2    c    0.232340 *  0.565730 *  0.322553 *  -1.21800    1.000000    
    269 O2    c    0.066035 *  0.567083 *  0.322773 *  -1.21800    1.000000    
    270 O2    c    0.899106 *  0.566148 *  0.322753 *  -1.21800    1.000000    
    271 O2    c    0.734220 *  0.566984 *  0.322663 *  -1.21800    1.000000    
    272 O2    c    0.565169 *  0.566794 *  0.323340 *  -1.21800    1.000000    
    273 O2    c    0.315037 *  0.667940 *  0.312337 *  -1.21800    1.000000    
    274 O2    c    0.315407 *  0.465115 *  0.312222 *  -1.21800    1.000000    
    275 O2    c    0.148952 *  0.334299 *  0.312431 *  -1.21800    1.000000    
    276 O2    c    0.148932 *  0.132153 *  0.312305 *  -1.21800    1.000000    
    277 O2    c    0.982190 *  0.334256 *  0.312410 *  -1.21800    1.000000    
    278 O2    c    0.981644 *  0.132209 *  0.312280 *  -1.21800    1.000000    
    279 O2    c    0.816037 *  0.333920 *  0.312152 *  -1.21800    1.000000    
    280 O2    c    0.815063 *  0.131923 *  0.312383 *  -1.21800    1.000000    
    281 O2    c    0.648632 *  0.334190 *  0.312397 *  -1.21800    1.000000    
    282 O2    c    0.648758 *  0.131678 *  0.312439 *  -1.21800    1.000000    
    283 O2    c    0.482297 *  0.334203 *  0.312388 *  -1.21800    1.000000    
    284 O2    c    0.482294 *  0.131765 *  0.312411 *  -1.21800    1.000000    
    285 O2    c    0.314905 *  0.334056 *  0.312179 *  -1.21800    1.000000    
    286 O2    c    0.316147 *  0.132130 *  0.312258 *  -1.21800    1.000000    
    287 O2    c    0.148940 *  0.001077 *  0.312644 *  -1.21800    1.000000    
    288 O2    c    0.149060 *  0.796301 *  0.312953 *  -1.21800    1.000000    
    289 O2    c    0.981945 *  0.000914 *  0.312431 *  -1.21800    1.000000    
    290 O2    c    0.981204 *  0.797949 *  0.312156 *  -1.21800    1.000000    
    291 O2    c    0.815228 *  0.000677 *  0.312369 *  -1.21800    1.000000    
    292 O2    c    0.814993 *  0.798052 *  0.312393 *  -1.21800    1.000000    
    293 O2    c    0.648661 *  0.000421 *  0.312420 *  -1.21800    1.000000    
    294 O2    c    0.648900 *  0.798007 *  0.312438 *  -1.21800    1.000000    
    295 O2    c    0.482214 *  0.000400 *  0.312358 *  -1.21800    1.000000    
    296 O2    c    0.482786 *  0.797930 *  0.312148 *  -1.21800    1.000000    
    297 O2    c    0.315836 *  0.000711 *  0.312405 *  -1.21800    1.000000    
    298 O2    c    0.315716 *  0.796628 *  0.312713 *  -1.21800    1.000000    
    299 O2    c    0.149277 *  0.667886 *  0.312503 *  -1.21800    1.000000    
    300 O2    c    0.148813 *  0.465260 *  0.312374 *  -1.21800    1.000000    
    301 O2    c    0.981254 *  0.666722 *  0.311931 *  -1.21800    1.000000    
    302 O2    c    0.982562 *  0.465136 *  0.312415 *  -1.21800    1.000000    
    303 O2    c    0.815582 *  0.667211 *  0.312259 *  -1.21800    1.000000    
    304 O2    c    0.815730 *  0.464877 *  0.312260 *  -1.21800    1.000000    
    305 O2    c    0.648830 *  0.667074 *  0.312510 *  -1.21800    1.000000    
    306 O2    c    0.648612 *  0.463896 *  0.312606 *  -1.21800    1.000000    
    307 O2    c    0.482810 *  0.666843 *  0.312213 *  -1.21800    1.000000    
    308 O2    c    0.481928 *  0.464092 *  0.312592 *  -1.21800    1.000000    
    309 O2    c    0.399874 *  0.565895 *  0.301446 *  -1.21800    1.000000    
    310 O2    c    0.232021 *  0.232984 *  0.301432 *  -1.21800    1.000000    
    311 O2    c    0.065498 *  0.233305 *  0.301463 *  -1.21800    1.000000    
    312 O2    c    0.898878 *  0.232919 *  0.301441 *  -1.21800    1.000000    
    313 O2    c    0.731805 *  0.233022 *  0.301461 *  -1.21800    1.000000    
    314 O2    c    0.565492 *  0.233154 *  0.301513 *  -1.21800    1.000000    
    315 O2    c    0.399235 *  0.233276 *  0.301460 *  -1.21800    1.000000    
    316 O2    c    0.231066 *  0.897976 *  0.302077 *  -1.21800    1.000000    
    317 O2    c    0.066923 *  0.898585 *  0.302075 *  -1.21800    1.000000    
    318 O2    c    0.899324 *  0.899579 *  0.301613 *  -1.21800    1.000000    
    319 O2    c    0.732020 *  0.899369 *  0.301502 *  -1.21800    1.000000    
    320 O2    c    0.565649 *  0.899470 *  0.301484 *  -1.21800    1.000000    
    321 O2    c    0.397890 *  0.898552 *  0.301627 *  -1.21800    1.000000    
    322 O2    c    0.231857 *  0.566904 *  0.301265 *  -1.21800    1.000000    
    323 O2    c    0.065601 *  0.566495 *  0.301347 *  -1.21800    1.000000    
    324 O2    c    0.898866 *  0.565459 *  0.301333 *  -1.21800    1.000000    
    325 O2    c    0.731070 *  0.565332 *  0.301483 *  -1.21800    1.000000    
    326 O2    c    0.565586 *  0.564725 *  0.301748 *  -1.21800    1.000000    
    327 O2    c    0.398384 *  0.732410 *  0.295485 *  -1.21800    1.000000    
    328 O2    c    0.232114 *  0.399817 *  0.295662 *  -1.21800    1.000000    
    329 O2    c    0.065588 *  0.399619 *  0.295703 *  -1.21800    1.000000    
    330 O2    c    0.898946 *  0.399695 *  0.295668 *  -1.21800    1.000000    
    331 O2    c    0.731799 *  0.399415 *  0.295559 *  -1.21800    1.000000    
    332 O2    c    0.565411 *  0.399471 *  0.295557 *  -1.21800    1.000000    
    333 O2    c    0.399101 *  0.399441 *  0.295563 *  -1.21800    1.000000    
    334 O2    c    0.232208 *  0.066232 *  0.295750 *  -1.21800    1.000000    
    335 O2    c    0.065544 *  0.066307 *  0.295755 *  -1.21800    1.000000    
    336 O2    c    0.898602 *  0.066309 *  0.295747 *  -1.21800    1.000000    
    337 O2    c    0.731929 *  0.066157 *  0.295740 *  -1.21800    1.000000    
    338 O2    c    0.565538 *  0.066188 *  0.295739 *  -1.21800    1.000000    
    339 O2    c    0.399046 *  0.066171 *  0.295738 *  -1.21800    1.000000    
    340 O2    c    0.231998 *  0.732657 *  0.295492 *  -1.21800    1.000000    
    341 O2    c    0.066190 *  0.732459 *  0.295435 *  -1.21800    1.000000    
    342 O2    c    0.898859 *  0.732660 *  0.295638 *  -1.21800    1.000000    
    343 O2    c    0.731956 *  0.732522 *  0.295739 *  -1.21800    1.000000    
    344 O2    c    0.565422 *  0.732453 *  0.295704 *  -1.21800    1.000000    
    345 O2    c    0.315587 *  0.501430 *  0.284912 *  -1.21800    1.000000    
    346 O2    c    0.315667 *  0.630760 *  0.284865 *  -1.21800    1.000000    
    347 O2    c    0.148818 *  0.168053 *  0.284900 *  -1.21800    1.000000    
    348 O2    c    0.148879 *  0.297723 *  0.284873 *  -1.21800    1.000000    
    349 O2    c    0.982168 *  0.168039 *  0.284903 *  -1.21800    1.000000    
    350 O2    c    0.982169 *  0.297688 *  0.284879 *  -1.21800    1.000000    
    351 O2    c    0.815379 *  0.168035 *  0.284924 *  -1.21800    1.000000    
    352 O2    c    0.815457 *  0.297611 *  0.284876 *  -1.21800    1.000000    
    353 O2    c    0.648725 *  0.167991 *  0.284917 *  -1.21800    1.000000    
    354 O2    c    0.648721 *  0.297624 *  0.284850 *  -1.21800    1.000000    
    355 O2    c    0.482213 *  0.167988 *  0.284922 *  -1.21800    1.000000    
    356 O2    c    0.482203 *  0.297651 *  0.284839 *  -1.21800    1.000000    
    357 O2    c    0.315612 *  0.168063 *  0.284935 *  -1.21800    1.000000    
    358 O2    c    0.315501 *  0.297660 *  0.284877 *  -1.21800    1.000000    
    359 O2    c    0.148886 *  0.834126 *  0.284968 *  -1.21800    1.000000    
    360 O2    c    0.148916 *  0.964280 *  0.285124 *  -1.21800    1.000000    
    361 O2    c    0.982535 *  0.834460 *  0.285044 *  -1.21800    1.000000    
    362 O2    c    0.982555 *  0.964139 *  0.285149 *  -1.21800    1.000000    
    363 O2    c    0.815552 *  0.834568 *  0.284999 *  -1.21800    1.000000    
    364 O2    c    0.815522 *  0.964156 *  0.284998 *  -1.21800    1.000000    
    365 O2    c    0.648788 *  0.834499 *  0.284934 *  -1.21800    1.000000    
    366 O2    c    0.648777 *  0.964191 *  0.284919 *  -1.21800    1.000000    
    367 O2    c    0.481977 *  0.834476 *  0.284966 *  -1.21800    1.000000    
    368 O2    c    0.481942 *  0.964005 *  0.285031 *  -1.21800    1.000000    
    369 O2    c    0.315127 *  0.834287 *  0.285037 *  -1.21800    1.000000    
    370 O2    c    0.315156 *  0.964006 *  0.285170 *  -1.21800    1.000000    
    371 O2    c    0.148808 *  0.501424 *  0.284831 *  -1.21800    1.000000    
    372 O2    c    0.148879 *  0.630937 *  0.284732 *  -1.21800    1.000000    
    373 O2    c    0.982295 *  0.501308 *  0.284818 *  -1.21800    1.000000    
    374 O2    c    0.982105 *  0.630864 *  0.284766 *  -1.21800    1.000000    
    375 O2    c    0.815327 *  0.501195 *  0.284862 *  -1.21800    1.000000    
    376 O2    c    0.815279 *  0.630641 *  0.284946 *  -1.21800    1.000000    
    377 O2    c    0.648598 *  0.500948 *  0.284828 *  -1.21800    1.000000    
    378 O2    c    0.648544 *  0.630755 *  0.284939 *  -1.21800    1.000000    
    379 O2    c    0.482274 *  0.501034 *  0.284838 *  -1.21800    1.000000    
    380 O2    c    0.482388 *  0.630826 *  0.284877 *  -1.21800    1.000000    
    381 O2    c    0.399094 *  0.732658 *  0.273956 *  -1.21800    1.000000    
    382 O2    c    0.232099 *  0.399682 *  0.274031 *  -1.21800    1.000000    
    383 O2    c    0.065522 *  0.399533 *  0.274053 *  -1.21800    1.000000    
    384 O2    c    0.898939 *  0.399486 *  0.274035 *  -1.21800    1.000000    
    385 O2    c    0.732358 *  0.399300 *  0.273973 *  -1.21800    1.000000    
    386 O2    c    0.565452 *  0.399186 *  0.273937 *  -1.21800    1.000000    
    387 O2    c    0.398565 *  0.399496 *  0.273973 *  -1.21800    1.000000    
    388 O2    c    0.232251 *  0.066186 *  0.274168 *  -1.21800    1.000000    
    389 O2    c    0.065459 *  0.066149 *  0.274168 *  -1.21800    1.000000    
    390 O2    c    0.898862 *  0.065969 *  0.274161 *  -1.21800    1.000000    
    391 O2    c    0.732172 *  0.066075 *  0.274134 *  -1.21800    1.000000    
    392 O2    c    0.565391 *  0.065955 *  0.274131 *  -1.21800    1.000000    
    393 O2    c    0.398750 *  0.065879 *  0.274155 *  -1.21800    1.000000    
    394 O2    c    0.232358 *  0.732260 *  0.273886 *  -1.21800    1.000000    
    395 O2    c    0.065119 *  0.732445 *  0.273909 *  -1.21800    1.000000    
    396 O2    c    0.898437 *  0.732658 *  0.274043 *  -1.21800    1.000000    
    397 O2    c    0.732137 *  0.732648 *  0.274116 *  -1.21800    1.000000    
    398 O2    c    0.565702 *  0.732879 *  0.274063 *  -1.21800    1.000000    
    399 O2    c    0.398611 *  0.566034 *  0.268309 *  -1.21800    1.000000    
    400 O2    c    0.232222 *  0.232844 *  0.268343 *  -1.21800    1.000000    
    401 O2    c    0.065503 *  0.232881 *  0.268352 *  -1.21800    1.000000    
    402 O2    c    0.898778 *  0.232822 *  0.268347 *  -1.21800    1.000000    
    403 O2    c    0.732116 *  0.232815 *  0.268341 *  -1.21800    1.000000    
    404 O2    c    0.565473 *  0.232785 *  0.268345 *  -1.21800    1.000000    
    405 O2    c    0.398830 *  0.232825 *  0.268342 *  -1.21800    1.000000    
    406 O2    c    0.232364 *  0.899263 *  0.268679 *  -1.21800    1.000000    
    407 O2    c    0.065407 *  0.899322 *  0.268686 *  -1.21800    1.000000    
    408 O2    c    0.898719 *  0.899322 *  0.268524 *  -1.21800    1.000000    
    409 O2    c    0.732090 *  0.899302 *  0.268413 *  -1.21800    1.000000    
    410 O2    c    0.565422 *  0.899308 *  0.268402 *  -1.21800    1.000000    
    411 O2    c    0.398886 *  0.899271 *  0.268501 *  -1.21800    1.000000    
    412 O2    c    0.232212 *  0.566053 *  0.268205 *  -1.21800    1.000000    
    413 O2    c    0.065596 *  0.566068 *  0.268216 *  -1.21800    1.000000    
    414 O2    c    0.898851 *  0.566012 *  0.268270 *  -1.21800    1.000000    
    415 O2    c    0.732227 *  0.566026 *  0.268362 *  -1.21800    1.000000    
    416 O2    c    0.565401 *  0.565985 *  0.268418 *  -1.21800    1.000000    
    417 O2    c    0.315588 *  0.667168 *  0.257300 *  -1.21800    1.000000    
    418 O2    c    0.315453 *  0.464950 *  0.257316 *  -1.21800    1.000000    
    419 O2    c    0.148841 *  0.333924 *  0.257382 *  -1.21800    1.000000    
    420 O2    c    0.148839 *  0.131625 *  0.257471 *  -1.21800    1.000000    
    421 O2    c    0.982175 *  0.333900 *  0.257377 *  -1.21800    1.000000    
    422 O2    c    0.982148 *  0.131618 *  0.257464 *  -1.21800    1.000000    
    423 O2    c    0.815538 *  0.333864 *  0.257352 *  -1.21800    1.000000    
    424 O2    c    0.815488 *  0.131596 *  0.257457 *  -1.21800    1.000000    
    425 O2    c    0.648833 *  0.333865 *  0.257339 *  -1.21800    1.000000    
    426 O2    c    0.648784 *  0.131580 *  0.257452 *  -1.21800    1.000000    
    427 O2    c    0.482096 *  0.333889 *  0.257344 *  -1.21800    1.000000    
    428 O2    c    0.482121 *  0.131578 *  0.257458 *  -1.21800    1.000000    
    429 O2    c    0.315442 *  0.333908 *  0.257358 *  -1.21800    1.000000    
    430 O2    c    0.315525 *  0.131614 *  0.257461 *  -1.21800    1.000000    
    431 O2    c    0.148862 *  0.000505 *  0.257591 *  -1.21800    1.000000    
    432 O2    c    0.148840 *  0.798091 *  0.257476 *  -1.21800    1.000000    
    433 O2    c    0.982198 *  0.000498 *  0.257550 *  -1.21800    1.000000    
    434 O2    c    0.982060 *  0.798186 *  0.257449 *  -1.21800    1.000000    
    435 O2    c    0.815501 *  0.000520 *  0.257492 *  -1.21800    1.000000    
    436 O2    c    0.815420 *  0.798239 *  0.257428 *  -1.21800    1.000000    
    437 O2    c    0.648792 *  0.000527 *  0.257466 *  -1.21800    1.000000    
    438 O2    c    0.648846 *  0.798246 *  0.257410 *  -1.21800    1.000000    
    439 O2    c    0.482091 *  0.000491 *  0.257484 *  -1.21800    1.000000    
    440 O2    c    0.482202 *  0.798216 *  0.257397 *  -1.21800    1.000000    
    441 O2    c    0.315452 *  0.000480 *  0.257542 *  -1.21800    1.000000    
    442 O2    c    0.315518 *  0.798130 *  0.257430 *  -1.21800    1.000000    
    443 O2    c    0.148825 *  0.667184 *  0.257280 *  -1.21800    1.000000    
    444 O2    c    0.148836 *  0.464960 *  0.257321 *  -1.21800    1.000000    
    445 O2    c    0.982021 *  0.667149 *  0.257310 *  -1.21800    1.000000    
    446 O2    c    0.982194 *  0.464941 *  0.257336 *  -1.21800    1.000000    
    447 O2    c    0.815405 *  0.667128 *  0.257382 *  -1.21800    1.000000    
    448 O2    c    0.815516 *  0.464898 *  0.257346 *  -1.21800    1.000000    
    449 O2    c    0.648810 *  0.667146 *  0.257423 *  -1.21800    1.000000    
    450 O2    c    0.648813 *  0.464848 *  0.257370 *  -1.21800    1.000000    
    451 O2    c    0.482245 *  0.667166 *  0.257382 *  -1.21800    1.000000    
    452 O2    c    0.482109 *  0.464876 *  0.257358 *  -1.21800    1.000000    
    453 O2    c    0.399095 *  0.566052 *  0.246917 *  -1.21800    1.000000    
    454 O2    c    0.232150 *  0.232768 *  0.246969 *  -1.21800    1.000000    
    455 O2    c    0.065502 *  0.232773 *  0.246977 *  -1.21800    1.000000    
    456 O2    c    0.898838 *  0.232728 *  0.246971 *  -1.21800    1.000000    
    457 O2    c    0.732142 *  0.232689 *  0.246962 *  -1.21800    1.000000    
    458 O2    c    0.565465 *  0.232720 *  0.246961 *  -1.21800    1.000000    
    459 O2    c    0.398827 *  0.232757 *  0.246962 *  -1.21800    1.000000    
    460 O2    c    0.231927 *  0.899212 *  0.247233 *  -1.21800    1.000000    
    461 O2    c    0.065704 *  0.899240 *  0.247246 *  -1.21800    1.000000    
    462 O2    c    0.899115 *  0.899381 *  0.247137 *  -1.21800    1.000000    
    463 O2    c    0.732265 *  0.899468 *  0.247046 *  -1.21800    1.000000    
    464 O2    c    0.565382 *  0.899424 *  0.247034 *  -1.21800    1.000000    
    465 O2    c    0.398501 *  0.899311 *  0.247111 *  -1.21800    1.000000    
    466 O2    c    0.232255 *  0.566138 *  0.246839 *  -1.21800    1.000000    
    467 O2    c    0.065421 *  0.566107 *  0.246845 *  -1.21800    1.000000    
    468 O2    c    0.898651 *  0.566012 *  0.246898 *  -1.21800    1.000000    
    469 O2    c    0.731947 *  0.565961 *  0.246970 *  -1.21800    1.000000    
    470 O2    c    0.565535 *  0.565967 *  0.246995 *  -1.21800    1.000000    
    471 O2    c    0.398756 *  0.732711 *  0.240397 *  -1.21800    1.000000    
    472 O2    c    0.232189 *  0.399345 *  0.240405 *  -1.21800    1.000000    
    473 O2    c    0.065517 *  0.399349 *  0.240422 *  -1.21800    1.000000    
    474 O2    c    0.898810 *  0.399374 *  0.240416 *  -1.21800    1.000000    
    475 O2    c    0.732102 *  0.399395 *  0.240391 *  -1.21800    1.000000    
    476 O2    c    0.565458 *  0.399406 *  0.240373 *  -1.21800    1.000000    
    477 O2    c    0.398845 *  0.399373 *  0.240381 *  -1.21800    1.000000    
    478 O2    c    0.232175 *  0.066034 *  0.240582 *  -1.21800    1.000000    
    479 O2    c    0.065516 *  0.066024 *  0.240586 *  -1.21800    1.000000    
    480 O2    c    0.898812 *  0.066053 *  0.240561 *  -1.21800    1.000000    
    481 O2    c    0.732124 *  0.066071 *  0.240532 *  -1.21800    1.000000    
    482 O2    c    0.565461 *  0.066067 *  0.240528 *  -1.21800    1.000000    
    483 O2    c    0.398825 *  0.066051 *  0.240552 *  -1.21800    1.000000    
    484 O2    c    0.232158 *  0.732783 *  0.240354 *  -1.21800    1.000000    
    485 O2    c    0.065576 *  0.732789 *  0.240385 *  -1.21800    1.000000    
    486 O2    c    0.898867 *  0.732731 *  0.240451 *  -1.21800    1.000000    
    487 O2    c    0.732129 *  0.732666 *  0.240492 *  -1.21800    1.000000    
    488 O2    c    0.565415 *  0.732659 *  0.240463 *  -1.21800    1.000000    
    489 O2    c    0.315604 *  0.505434 *  0.229184 *  -1.21800    1.000000    
    490 O2    c    0.148821 *  0.172000 *  0.229313 *  -1.21800    1.000000    
    491 O2    c    0.982163 *  0.171997 *  0.229305 *  -1.21800    1.000000    
    492 O2    c    0.815500 *  0.171995 *  0.229283 *  -1.21800    1.000000    
    493 O2    c    0.648809 *  0.171993 *  0.229270 *  -1.21800    1.000000    
    494 O2    c    0.482140 *  0.171993 *  0.229276 *  -1.21800    1.000000    
    495 O2    c    0.315493 *  0.171999 *  0.229299 *  -1.21800    1.000000    
    496 O2    c    0.148816 *  0.838684 *  0.229360 *  -1.21800    1.000000    
    497 O2    c    0.982311 *  0.838718 *  0.229374 *  -1.21800    1.000000    
    498 O2    c    0.815625 *  0.838758 *  0.229355 *  -1.21800    1.000000    
    499 O2    c    0.648835 *  0.838768 *  0.229330 *  -1.21800    1.000000    
    500 O2    c    0.482012 *  0.838757 *  0.229323 *  -1.21800    1.000000    
    501 O2    c    0.315308 *  0.838716 *  0.229339 *  -1.21800    1.000000    
    502 O2    c    0.148827 *  0.505442 *  0.229170 *  -1.21800    1.000000    
    503 O2    c    0.982076 *  0.505423 *  0.229181 *  -1.21800    1.000000    
    504 O2    c    0.815367 *  0.505401 *  0.229206 *  -1.21800    1.000000    
    505 O2    c    0.648777 *  0.505374 *  0.229214 *  -1.21800    1.000000    
    506 O2    c    0.482260 *  0.505387 *  0.229201 *  -1.21800    1.000000    
    507 O2    c    0.315618 *  0.626749 *  0.229163 *  -1.21800    1.000000    
    508 O2    c    0.148830 *  0.293344 *  0.229224 *  -1.21800    1.000000    
    509 O2    c    0.982171 *  0.293340 *  0.229232 *  -1.21800    1.000000    
    510 O2    c    0.815498 *  0.293330 *  0.229231 *  -1.21800    1.000000    
    511 O2    c    0.648820 *  0.293325 *  0.229220 *  -1.21800    1.000000    
    512 O2    c    0.482136 *  0.293333 *  0.229212 *  -1.21800    1.000000    
    513 O2    c    0.315472 *  0.293341 *  0.229215 *  -1.21800    1.000000    
    514 O2    c    0.148810 *  0.960074 *  0.229485 *  -1.21800    1.000000    
    515 O2    c    0.982320 *  0.960058 *  0.229456 *  -1.21800    1.000000    
    516 O2    c    0.815624 *  0.960044 *  0.229376 *  -1.21800    1.000000    
    517 O2    c    0.648825 *  0.960038 *  0.229331 *  -1.21800    1.000000    
    518 O2    c    0.482022 *  0.960029 *  0.229367 *  -1.21800    1.000000    
    519 O2    c    0.315309 *  0.960049 *  0.229445 *  -1.21800    1.000000    
    520 O2    c    0.148826 *  0.626748 *  0.229136 *  -1.21800    1.000000    
    521 O2    c    0.982062 *  0.626753 *  0.229176 *  -1.21800    1.000000    
    522 O2    c    0.815369 *  0.626754 *  0.229240 *  -1.21800    1.000000    
    523 O2    c    0.648773 *  0.626773 *  0.229263 *  -1.21800    1.000000    
    524 O2    c    0.482261 *  0.626776 *  0.229223 *  -1.21800    1.000000    
    525 O2    c    0.398967 *  0.732932 *  0.219742 *  -1.21800    1.000000    
    526 O2    c    0.232110 *  0.399505 *  0.219748 *  -1.21800    1.000000    
    527 O2    c    0.065466 *  0.399440 *  0.219763 *  -1.21800    1.000000    
    528 O2    c    0.898844 *  0.399368 *  0.219757 *  -1.21800    1.000000    
    529 O2    c    0.732210 *  0.399264 *  0.219733 *  -1.21800    1.000000    
    530 O2    c    0.565509 *  0.399214 *  0.219715 *  -1.21800    1.000000    
    531 O2    c    0.398782 *  0.399378 *  0.219724 *  -1.21800    1.000000    
    532 O2    c    0.232093 *  0.065947 *  0.219921 *  -1.21800    1.000000    
    533 O2    c    0.065524 *  0.065951 *  0.219924 *  -1.21800    1.000000    
    534 O2    c    0.898931 *  0.065856 *  0.219904 *  -1.21800    1.000000    
    535 O2    c    0.732221 *  0.065872 *  0.219877 *  -1.21800    1.000000    
    536 O2    c    0.565442 *  0.065847 *  0.219873 *  -1.21800    1.000000    
    537 O2    c    0.398710 *  0.065821 *  0.219896 *  -1.21800    1.000000    
    538 O2    c    0.232174 *  0.732695 *  0.219702 *  -1.21800    1.000000    
    539 O2    c    0.065337 *  0.732747 *  0.219728 *  -1.21800    1.000000    
    540 O2    c    0.898667 *  0.732903 *  0.219793 *  -1.21800    1.000000    
    541 O2    c    0.732143 *  0.732999 *  0.219830 *  -1.21800    1.000000    
    542 O2    c    0.565617 *  0.733084 *  0.219803 *  -1.21800    1.000000    
    543 O176  c    0.680216 *  0.459164 *  0.358889 *  -1.08000    1.000000    
    544 O177  c    0.145046 *  0.897784 *  0.422966 *  -1.08000    1.000000    
    545 O176  c    0.680216 *  0.336404 *  0.358889 *  -1.08000    1.000000    
    546 O177  c    0.267806 *  0.897784 *  0.422966 *  -1.08000    1.000000    
    547 O176  c    0.241596 *  0.897784 *  0.358889 *  -1.08000    1.000000    
    548 O177  c    0.706426 *  0.459164 *  0.422966 *  -1.08000    1.000000    
    549 O176  c    0.118836 *  0.897784 *  0.358889 *  -1.08000    1.000000    
    550 O177  c    0.706426 *  0.336404 *  0.422966 *  -1.08000    1.000000    
    551 O171  c    0.217822 *  0.897784 *  0.450826 *  -2.00000    1.000000    
    552 O171  c    0.717822 *  0.397784 *  0.450826 *  -2.00000    1.000000    
    553 O170  c    0.306419 *  0.750814 *  0.458179 *  -1.08000    1.000000    
    554 O170  c    0.067844 *  0.983374 *  0.443473 *  -1.08000    1.000000    
    555 O170  c    0.361784 *  0.812194 *  0.443473 *  -1.08000    1.000000    
    556 O170  c    0.135239 *  0.044754 *  0.458179 *  -1.08000    1.000000    
    557 O170  c    0.361784 *  0.983374 *  0.443473 *  -1.08000    1.000000    
    558 O170  c    0.067844 *  0.812194 *  0.443473 *  -1.08000    1.000000    
    559 O170  c    0.306419 *  0.044754 *  0.458179 *  -1.08000    1.000000    
    560 O170  c    0.135239 *  0.750814 *  0.458179 *  -1.08000    1.000000    
    561 O170  c    0.229217 *  0.959164 *  0.478686 *  -1.08000    1.000000    
    562 O170  c    0.694047 *  0.397784 *  0.542764 *  -1.08000    1.000000    
    563 O170  c    0.229217 *  0.836404 *  0.478686 *  -1.08000    1.000000    
    564 O170  c    0.816807 *  0.397784 *  0.542764 *  -1.08000    1.000000    
    565 O170  c    0.790597 *  0.397784 *  0.478686 *  -1.08000    1.000000    
    566 O170  c    0.255427 *  0.959164 *  0.542764 *  -1.08000    1.000000    
    567 O170  c    0.667837 *  0.397784 *  0.478686 *  -1.08000    1.000000    
    568 O170  c    0.255427 *  0.836404 *  0.542764 *  -1.08000    1.000000    
    569 O170  c    0.573859 *  0.312194 *  0.458179 *  -1.08000    1.000000    
    570 O170  c    0.800404 *  0.544754 *  0.443473 *  -1.08000    1.000000    
    571 O170  c    0.629224 *  0.250814 *  0.443473 *  -1.08000    1.000000    
    572 O170  c    0.867799 *  0.483374 *  0.458179 *  -1.08000    1.000000    
    573 O170  c    0.800404 *  0.250814 *  0.443473 *  -1.08000    1.000000    
    574 O170  c    0.629224 *  0.544754 *  0.443473 *  -1.08000    1.000000    
    575 O170  c    0.867799 *  0.312194 *  0.458179 *  -1.08000    1.000000    
    576 O170  c    0.573859 *  0.483374 *  0.458179 *  -1.08000    1.000000    
    577 O171  c    0.766823 *  0.397784 *  0.570624 *  -2.00000    1.000000    
    578 O171  c    0.266823 *  0.897784 *  0.570624 *  -2.00000    1.000000    
    579 O170  c    0.855421 *  0.250814 *  0.577977 *  -1.08000    1.000000    
    580 O170  c    0.616845 *  0.483374 *  0.563271 *  -1.08000    1.000000    
    581 O170  c    0.910785 *  0.312194 *  0.563271 *  -1.08000    1.000000    
    582 O170  c    0.684241 *  0.544754 *  0.577977 *  -1.08000    1.000000    
    583 O170  c    0.910785 *  0.483374 *  0.563271 *  -1.08000    1.000000    
    584 O170  c    0.616845 *  0.312194 *  0.563271 *  -1.08000    1.000000    
    585 O170  c    0.855421 *  0.544754 *  0.577977 *  -1.08000    1.000000    
    586 O170  c    0.684241 *  0.250814 *  0.577977 *  -1.08000    1.000000    
    587 O170  c    0.778219 *  0.459164 *  0.598484 *  -1.08000    1.000000    
    588 O170  c    0.243049 *  0.897784 *  0.662562 *  -1.08000    1.000000    
    589 O170  c    0.778219 *  0.336404 *  0.598484 *  -1.08000    1.000000    
    590 O170  c    0.365809 *  0.897784 *  0.662562 *  -1.08000    1.000000    
    591 O170  c    0.339599 *  0.897784 *  0.598484 *  -1.08000    1.000000    
    592 O170  c    0.804429 *  0.459164 *  0.662562 *  -1.08000    1.000000    
    593 O170  c    0.216839 *  0.897784 *  0.598484 *  -1.08000    1.000000    
    594 O170  c    0.804429 *  0.336404 *  0.662562 *  -1.08000    1.000000    
    595 O170  c    0.122861 *  0.812194 *  0.577977 *  -1.08000    1.000000    
    596 O170  c    0.349405 *  0.044754 *  0.563271 *  -1.08000    1.000000    
    597 O170  c    0.178225 *  0.750814 *  0.563271 *  -1.08000    1.000000    
    598 O170  c    0.416801 *  0.983374 *  0.577977 *  -1.08000    1.000000    
    599 O170  c    0.349405 *  0.750814 *  0.563271 *  -1.08000    1.000000    
    600 O170  c    0.178225 *  0.044754 *  0.563271 *  -1.08000    1.000000    
    601 O170  c    0.416801 *  0.812194 *  0.577977 *  -1.08000    1.000000    
    602 O170  c    0.122861 *  0.983374 *  0.577977 *  -1.08000    1.000000    
    603 O171  c    0.315824 *  0.897784 *  0.690422 *  -2.00000    1.000000    
    604 O171  c    0.815824 *  0.397784 *  0.690422 *  -2.00000    1.000000    
    605 O170  c    0.404422 *  0.750814 *  0.697775 *  -1.08000    1.000000    
    606 O170  c    0.165847 *  0.983374 *  0.683069 *  -1.08000    1.000000    
    607 O170  c    0.459787 *  0.812194 *  0.683069 *  -1.08000    1.000000    
    608 O170  c    0.233242 *  0.044754 *  0.697775 *  -1.08000    1.000000    
    609 O170  c    0.459787 *  0.983374 *  0.683069 *  -1.08000    1.000000    
    610 O170  c    0.165847 *  0.812194 *  0.683069 *  -1.08000    1.000000    
    611 O170  c    0.404422 *  0.044754 *  0.697775 *  -1.08000    1.000000    
    612 O170  c    0.233242 *  0.750814 *  0.697775 *  -1.08000    1.000000    
    613 O170  c    0.327220 *  0.959164 *  0.718282 *  -1.08000    1.000000    
    614 O173  c    0.792050 *  0.397784 *  0.782360 *  -0.69000    1.000000    
    615 O170  c    0.327220 *  0.836404 *  0.718282 *  -1.08000    1.000000    
    616 O172  c    0.914810 *  0.397784 *  0.782360 *  -0.69000    1.000000    
    617 H21   c    0.914810 *  0.397784 *  0.791065 *   0.22000    1.000000    
    618 O170  c    0.888600 *  0.397784 *  0.718282 *  -1.08000    1.000000    
    619 O173  c    0.353430 *  0.959164 *  0.782360 *  -0.69000    1.000000    
    620 O170  c    0.765840 *  0.397784 *  0.718282 *  -1.08000    1.000000    
    621 O172  c    0.353430 *  0.836404 *  0.782360 *  -0.69000    1.000000    
    622 H21   c    0.353430 *  0.836404 *  0.791065 *   0.22000    1.000000    
    623 O170  c    0.671862 *  0.312194 *  0.697775 *  -1.08000    1.000000    
    624 O170  c    0.898407 *  0.544754 *  0.683069 *  -1.08000    1.000000    
    625 O170  c    0.727227 *  0.250814 *  0.683069 *  -1.08000    1.000000    
    626 O170  c    0.965802 *  0.483374 *  0.697775 *  -1.08000    1.000000    
    627 O170  c    0.898407 *  0.250814 *  0.683069 *  -1.08000    1.000000    
    628 O170  c    0.727227 *  0.544754 *  0.683069 *  -1.08000    1.000000    
    629 O170  c    0.965802 *  0.312194 *  0.697775 *  -1.08000    1.000000    
    630 O170  c    0.671862 *  0.483374 *  0.697775 *  -1.08000    1.000000    
    631 C912  c    0.690697 *  0.463704 *  0.384513 *  -0.07025    1.000000    
    632 C912  c    0.130024 *  0.897784 *  0.397341 *  -0.07025    1.000000    
    633 C912  c    0.690697 *  0.331864 *  0.384513 *  -0.07025    1.000000    
    634 C912  c    0.261864 *  0.897784 *  0.397341 *  -0.07025    1.000000    
    635 C912  c    0.256617 *  0.897784 *  0.384513 *  -0.07025    1.000000    
    636 C912  c    0.695944 *  0.463704 *  0.397341 *  -0.07025    1.000000    
    637 C912  c    0.124777 *  0.897784 *  0.384513 *  -0.07025    1.000000    
    638 C912  c    0.695944 *  0.331864 *  0.397341 *  -0.07025    1.000000    
    639 C916  c    0.682390 *  0.397784 *  0.364203 *   1.07050    1.000000    
    640 C917  c    0.204252 *  0.897784 *  0.417652 *   1.07050    1.000000    
    641 C916  c    0.182390 *  0.897784 *  0.364203 *   1.07050    1.000000    
    642 C917  c    0.704252 *  0.397784 *  0.417652 *   1.07050    1.000000    
    643 C902  c    0.688055 *  0.397784 *  0.378054 *   0.00500    1.000000    
    644 C902  c    0.198587 *  0.897784 *  0.403801 *   0.00500    1.000000    
    645 C902  c    0.188055 *  0.897784 *  0.378054 *   0.00500    1.000000    
    646 C902  c    0.698587 *  0.397784 *  0.403801 *   0.00500    1.000000    
    647 C912  c    0.411322 *  0.641594 *  0.458723 *  -0.07025    1.000000    
    648 C912  c    0.958401 *  0.088054 *  0.442929 *  -0.07025    1.000000    
    649 C912  c    0.470781 *  0.707514 *  0.442929 *  -0.07025    1.000000    
    650 C912  c    0.030782 *  0.153974 *  0.458723 *  -0.07025    1.000000    
    651 C912  c    0.470781 *  0.088054 *  0.442929 *  -0.07025    1.000000    
    652 C912  c    0.958401 *  0.707514 *  0.442929 *  -0.07025    1.000000    
    653 C912  c    0.411322 *  0.153974 *  0.458723 *  -0.07025    1.000000    
    654 C912  c    0.030782 *  0.641594 *  0.458723 *  -0.07025    1.000000    
    655 C912  c    0.239699 *  0.963704 *  0.504311 *  -0.07025    1.000000    
    656 C912  c    0.679026 *  0.397784 *  0.517139 *  -0.07025    1.000000    
    657 C912  c    0.239699 *  0.831864 *  0.504311 *  -0.07025    1.000000    
    658 C912  c    0.810866 *  0.397784 *  0.517139 *  -0.07025    1.000000    
    659 C912  c    0.805619 *  0.397784 *  0.504311 *  -0.07025    1.000000    
    660 C912  c    0.244946 *  0.963704 *  0.517139 *  -0.07025    1.000000    
    661 C912  c    0.673779 *  0.397784 *  0.504311 *  -0.07025    1.000000    
    662 C912  c    0.244946 *  0.831864 *  0.517139 *  -0.07025    1.000000    
    663 C912  c    0.464862 *  0.207514 *  0.458723 *  -0.07025    1.000000    
    664 C912  c    0.904862 *  0.653974 *  0.442929 *  -0.07025    1.000000    
    665 C912  c    0.524321 *  0.141594 *  0.442929 *  -0.07025    1.000000    
    666 C912  c    0.977242 *  0.588054 *  0.458723 *  -0.07025    1.000000    
    667 C912  c    0.904862 *  0.141594 *  0.442929 *  -0.07025    1.000000    
    668 C912  c    0.524321 *  0.653974 *  0.442929 *  -0.07025    1.000000    
    669 C912  c    0.977242 *  0.207514 *  0.458723 *  -0.07025    1.000000    
    670 C912  c    0.464862 *  0.588054 *  0.458723 *  -0.07025    1.000000    
    671 C913  c    0.356282 *  0.759324 *  0.450826 *   1.07050    1.000000    
    672 C913  c    0.079362 *  0.036244 *  0.450826 *   1.07050    1.000000    
    673 C913  c    0.356282 *  0.036244 *  0.450826 *   1.07050    1.000000    
    674 C913  c    0.079362 *  0.759324 *  0.450826 *   1.07050    1.000000    
    675 C913  c    0.231391 *  0.897784 *  0.484001 *   1.07050    1.000000    
    676 C913  c    0.753253 *  0.397784 *  0.537450 *   1.07050    1.000000    
    677 C913  c    0.731391 *  0.397784 *  0.484001 *   1.07050    1.000000    
    678 C913  c    0.253253 *  0.897784 *  0.537450 *   1.07050    1.000000    
    679 C913  c    0.579362 *  0.259324 *  0.450826 *   1.07050    1.000000    
    680 C913  c    0.856282 *  0.536244 *  0.450826 *   1.07050    1.000000    
    681 C913  c    0.856282 *  0.259324 *  0.450826 *   1.07050    1.000000    
    682 C913  c    0.579362 *  0.536244 *  0.450826 *   1.07050    1.000000    
    683 C902  c    0.414092 *  0.701514 *  0.450826 *   0.00500    1.000000    
    684 C902  c    0.021552 *  0.094054 *  0.450826 *   0.00500    1.000000    
    685 C902  c    0.414092 *  0.094054 *  0.450826 *   0.00500    1.000000    
    686 C902  c    0.021552 *  0.701514 *  0.450826 *   0.00500    1.000000    
    687 C902  c    0.237057 *  0.897784 *  0.497852 *   0.00500    1.000000    
    688 C902  c    0.747588 *  0.397784 *  0.523599 *   0.00500    1.000000    
    689 C902  c    0.737057 *  0.397784 *  0.497852 *   0.00500    1.000000    
    690 C902  c    0.247588 *  0.897784 *  0.523599 *   0.00500    1.000000    
    691 C902  c    0.521552 *  0.201514 *  0.450826 *   0.00500    1.000000    
    692 C902  c    0.914092 *  0.594054 *  0.450826 *   0.00500    1.000000    
    693 C902  c    0.914092 *  0.201514 *  0.450826 *   0.00500    1.000000    
    694 C902  c    0.521552 *  0.594054 *  0.450826 *   0.00500    1.000000    
    695 C912  c    0.960323 *  0.141594 *  0.578521 *  -0.07025    1.000000    
    696 C912  c    0.507403 *  0.588054 *  0.562727 *  -0.07025    1.000000    
    697 C912  c    0.019783 *  0.207514 *  0.562727 *  -0.07025    1.000000    
    698 C912  c    0.579783 *  0.653974 *  0.578521 *  -0.07025    1.000000    
    699 C912  c    0.019783 *  0.588054 *  0.562727 *  -0.07025    1.000000    
    700 C912  c    0.507403 *  0.207514 *  0.562727 *  -0.07025    1.000000    
    701 C912  c    0.960323 *  0.653974 *  0.578521 *  -0.07025    1.000000    
    702 C912  c    0.579783 *  0.141594 *  0.578521 *  -0.07025    1.000000    
    703 C912  c    0.788700 *  0.463704 *  0.624109 *  -0.07025    1.000000    
    704 C912  c    0.228027 *  0.897784 *  0.636937 *  -0.07025    1.000000    
    705 C912  c    0.788700 *  0.331864 *  0.624109 *  -0.07025    1.000000    
    706 C912  c    0.359867 *  0.897784 *  0.636937 *  -0.07025    1.000000    
    707 C912  c    0.354620 *  0.897784 *  0.624109 *  -0.07025    1.000000    
    708 C912  c    0.793947 *  0.463704 *  0.636937 *  -0.07025    1.000000    
    709 C912  c    0.222780 *  0.897784 *  0.624109 *  -0.07025    1.000000    
    710 C912  c    0.793947 *  0.331864 *  0.636937 *  -0.07025    1.000000    
    711 C912  c    0.013863 *  0.707514 *  0.578521 *  -0.07025    1.000000    
    712 C912  c    0.453863 *  0.153974 *  0.562727 *  -0.07025    1.000000    
    713 C912  c    0.073323 *  0.641594 *  0.562727 *  -0.07025    1.000000    
    714 C912  c    0.526243 *  0.088054 *  0.578521 *  -0.07025    1.000000    
    715 C912  c    0.453863 *  0.641594 *  0.562727 *  -0.07025    1.000000    
    716 C912  c    0.073323 *  0.153974 *  0.562727 *  -0.07025    1.000000    
    717 C912  c    0.526243 *  0.707514 *  0.578521 *  -0.07025    1.000000    
    718 C912  c    0.013863 *  0.088054 *  0.578521 *  -0.07025    1.000000    
    719 C913  c    0.905283 *  0.259324 *  0.570624 *   1.07050    1.000000    
    720 C913  c    0.628363 *  0.536244 *  0.570624 *   1.07050    1.000000    
    721 C913  c    0.905283 *  0.536244 *  0.570624 *   1.07050    1.000000    
    722 C913  c    0.628363 *  0.259324 *  0.570624 *   1.07050    1.000000    
    723 C913  c    0.780392 *  0.397784 *  0.603799 *   1.07050    1.000000    
    724 C913  c    0.302255 *  0.897784 *  0.657248 *   1.07050    1.000000    
    725 C913  c    0.280392 *  0.897784 *  0.603799 *   1.07050    1.000000    
    726 C913  c    0.802255 *  0.397784 *  0.657248 *   1.07050    1.000000    
    727 C913  c    0.128363 *  0.759324 *  0.570624 *   1.07050    1.000000    
    728 C913  c    0.405283 *  0.036244 *  0.570624 *   1.07050    1.000000    
    729 C913  c    0.405283 *  0.759324 *  0.570624 *   1.07050    1.000000    
    730 C913  c    0.128363 *  0.036244 *  0.570624 *   1.07050    1.000000    
    731 C902  c    0.963093 *  0.201514 *  0.570624 *   0.00500    1.000000    
    732 C902  c    0.570553 *  0.594054 *  0.570624 *   0.00500    1.000000    
    733 C902  c    0.963093 *  0.594054 *  0.570624 *   0.00500    1.000000    
    734 C902  c    0.570553 *  0.201514 *  0.570624 *   0.00500    1.000000    
    735 C902  c    0.786058 *  0.397784 *  0.617650 *   0.00500    1.000000    
    736 C902  c    0.296589 *  0.897784 *  0.643397 *   0.00500    1.000000    
    737 C902  c    0.286058 *  0.897784 *  0.617650 *   0.00500    1.000000    
    738 C902  c    0.796589 *  0.397784 *  0.643397 *   0.00500    1.000000    
    739 C902  c    0.070553 *  0.701514 *  0.570624 *   0.00500    1.000000    
    740 C902  c    0.463093 *  0.094054 *  0.570624 *   0.00500    1.000000    
    741 C902  c    0.463093 *  0.701514 *  0.570624 *   0.00500    1.000000    
    742 C902  c    0.070553 *  0.094054 *  0.570624 *   0.00500    1.000000    
    743 C912  c    0.509324 *  0.641594 *  0.698319 *  -0.07025    1.000000    
    744 C912  c    0.056404 *  0.088054 *  0.682525 *  -0.07025    1.000000    
    745 C912  c    0.568784 *  0.707514 *  0.682525 *  -0.07025    1.000000    
    746 C912  c    0.128784 *  0.153974 *  0.698319 *  -0.07025    1.000000    
    747 C912  c    0.568784 *  0.088054 *  0.682525 *  -0.07025    1.000000    
    748 C912  c    0.056404 *  0.707514 *  0.682525 *  -0.07025    1.000000    
    749 C912  c    0.509324 *  0.153974 *  0.698319 *  -0.07025    1.000000    
    750 C912  c    0.128784 *  0.641594 *  0.698319 *  -0.07025    1.000000    
    751 C912  c    0.337701 *  0.963704 *  0.743907 *  -0.07025    1.000000    
    752 C912  c    0.777028 *  0.397784 *  0.756735 *  -0.07025    1.000000    
    753 C912  c    0.337701 *  0.831864 *  0.743907 *  -0.07025    1.000000    
    754 C912  c    0.908869 *  0.397784 *  0.756735 *  -0.07025    1.000000    
    755 C912  c    0.903621 *  0.397784 *  0.743907 *  -0.07025    1.000000    
    756 C912  c    0.342948 *  0.963704 *  0.756735 *  -0.07025    1.000000    
    757 C912  c    0.771781 *  0.397784 *  0.743907 *  -0.07025    1.000000    
    758 C912  c    0.342948 *  0.831864 *  0.756735 *  -0.07025    1.000000    
    759 C912  c    0.562864 *  0.207514 *  0.698319 *  -0.07025    1.000000    
    760 C912  c    0.002864 *  0.653974 *  0.682525 *  -0.07025    1.000000    
    761 C912  c    0.622324 *  0.141594 *  0.682525 *  -0.07025    1.000000    
    762 C912  c    0.075244 *  0.588054 *  0.698319 *  -0.07025    1.000000    
    763 C912  c    0.002864 *  0.141594 *  0.682525 *  -0.07025    1.000000    
    764 C912  c    0.622324 *  0.653974 *  0.682525 *  -0.07025    1.000000    
    765 C912  c    0.075244 *  0.207514 *  0.698319 *  -0.07025    1.000000    
    766 C912  c    0.562864 *  0.588054 *  0.698319 *  -0.07025    1.000000    
    767 C913  c    0.454284 *  0.759324 *  0.690422 *   1.07050    1.000000    
    768 C913  c    0.177364 *  0.036244 *  0.690422 *   1.07050    1.000000    
    769 C913  c    0.454284 *  0.036244 *  0.690422 *   1.07050    1.000000    
    770 C913  c    0.177364 *  0.759324 *  0.690422 *   1.07050    1.000000    
    771 C913  c    0.329394 *  0.897784 *  0.723596 *   1.07050    1.000000    
    772 C914  c    0.851256 *  0.397784 *  0.777046 *   1.07050    1.000000    
    773 C913  c    0.829394 *  0.397784 *  0.723596 *   1.07050    1.000000    
    774 C914  c    0.351256 *  0.897784 *  0.777046 *   1.07050    1.000000    
    775 C913  c    0.677364 *  0.259324 *  0.690422 *   1.07050    1.000000    
    776 C913  c    0.954284 *  0.536244 *  0.690422 *   1.07050    1.000000    
    777 C913  c    0.954284 *  0.259324 *  0.690422 *   1.07050    1.000000    
    778 C913  c    0.677364 *  0.536244 *  0.690422 *   1.07050    1.000000    
    779 C902  c    0.512094 *  0.701514 *  0.690422 *   0.00500    1.000000    
    780 C902  c    0.119554 *  0.094054 *  0.690422 *   0.00500    1.000000    
    781 C902  c    0.512094 *  0.094054 *  0.690422 *   0.00500    1.000000    
    782 C902  c    0.119554 *  0.701514 *  0.690422 *   0.00500    1.000000    
    783 C902  c    0.335059 *  0.897784 *  0.737448 *   0.00500    1.000000    
    784 C902  c    0.845591 *  0.397784 *  0.763195 *   0.00500    1.000000    
    785 C902  c    0.835059 *  0.397784 *  0.737448 *   0.00500    1.000000    
    786 C902  c    0.345591 *  0.897784 *  0.763195 *   0.00500    1.000000    
    787 C902  c    0.619554 *  0.201514 *  0.690422 *   0.00500    1.000000    
    788 C902  c    0.012094 *  0.594054 *  0.690422 *   0.00500    1.000000    
    789 C902  c    0.012094 *  0.201514 *  0.690422 *   0.00500    1.000000    
    790 C902  c    0.619554 *  0.594054 *  0.690422 *   0.00500    1.000000    
    791 H915  c    0.688901 *  0.508584 *  0.380121 *   0.11250    1.000000    
    792 H915  c    0.086941 *  0.897784 *  0.401733 *   0.11250    1.000000    
    793 H915  c    0.688901 *  0.286984 *  0.380121 *   0.11250    1.000000    
    794 H915  c    0.308541 *  0.897784 *  0.401733 *   0.11250    1.000000    
    795 H915  c    0.299701 *  0.897784 *  0.380121 *   0.11250    1.000000    
    796 H915  c    0.697741 *  0.508584 *  0.401733 *   0.11250    1.000000    
    797 H915  c    0.078101 *  0.897784 *  0.380121 *   0.11250    1.000000    
    798 H915  c    0.697741 *  0.286984 *  0.401733 *   0.11250    1.000000    
    799 H915  c    0.372751 *  0.637484 *  0.464100 *   0.11250    1.000000    
    800 H915  c    0.952092 *  0.047284 *  0.437553 *   0.11250    1.000000    
    801 H915  c    0.472692 *  0.748284 *  0.437553 *   0.11250    1.000000    
    802 H915  c    0.073751 *  0.158084 *  0.464100 *   0.11250    1.000000    
    803 H915  c    0.472692 *  0.047284 *  0.437553 *   0.11250    1.000000    
    804 H915  c    0.952092 *  0.748284 *  0.437553 *   0.11250    1.000000    
    805 H915  c    0.372751 *  0.158084 *  0.464100 *   0.11250    1.000000    
    806 H915  c    0.073751 *  0.637484 *  0.464100 *   0.11250    1.000000    
    807 H915  c    0.237902 *  0.008584 *  0.499919 *   0.11250    1.000000    
    808 H915  c    0.635942 *  0.397784 *  0.521531 *   0.11250    1.000000    
    809 H915  c    0.237902 *  0.786984 *  0.499919 *   0.11250    1.000000    
    810 H915  c    0.857542 *  0.397784 *  0.521531 *   0.11250    1.000000    
    811 H915  c    0.848702 *  0.397784 *  0.499919 *   0.11250    1.000000    
    812 H915  c    0.246742 *  0.008584 *  0.521531 *   0.11250    1.000000    
    813 H915  c    0.627102 *  0.397784 *  0.499919 *   0.11250    1.000000    
    814 H915  c    0.246742 *  0.786984 *  0.521531 *   0.11250    1.000000    
    815 H915  c    0.462951 *  0.248284 *  0.464100 *   0.11250    1.000000    
    816 H915  c    0.861892 *  0.658084 *  0.437553 *   0.11250    1.000000    
    817 H915  c    0.562892 *  0.137484 *  0.437553 *   0.11250    1.000000    
    818 H915  c    0.983551 *  0.547284 *  0.464100 *   0.11250    1.000000    
    819 H915  c    0.861892 *  0.137484 *  0.437553 *   0.11250    1.000000    
    820 H915  c    0.562892 *  0.658084 *  0.437553 *   0.11250    1.000000    
    821 H915  c    0.983551 *  0.248284 *  0.464100 *   0.11250    1.000000    
    822 H915  c    0.462951 *  0.547284 *  0.464100 *   0.11250    1.000000    
    823 H915  c    0.921752 *  0.137484 *  0.583898 *   0.11250    1.000000    
    824 H915  c    0.501094 *  0.547284 *  0.557351 *   0.11250    1.000000    
    825 H915  c    0.021694 *  0.248284 *  0.557351 *   0.11250    1.000000    
    826 H915  c    0.622752 *  0.658084 *  0.583898 *   0.11250    1.000000    
    827 H915  c    0.021694 *  0.547284 *  0.557351 *   0.11250    1.000000    
    828 H915  c    0.501094 *  0.248284 *  0.557351 *   0.11250    1.000000    
    829 H915  c    0.921752 *  0.658084 *  0.583898 *   0.11250    1.000000    
    830 H915  c    0.622752 *  0.137484 *  0.583898 *   0.11250    1.000000    
    831 H915  c    0.786904 *  0.508584 *  0.619717 *   0.11250    1.000000    
    832 H915  c    0.184944 *  0.897784 *  0.641329 *   0.11250    1.000000    
    833 H915  c    0.786904 *  0.286984 *  0.619717 *   0.11250    1.000000    
    834 H915  c    0.406544 *  0.897784 *  0.641329 *   0.11250    1.000000    
    835 H915  c    0.397704 *  0.897784 *  0.619717 *   0.11250    1.000000    
    836 H915  c    0.795744 *  0.508584 *  0.641329 *   0.11250    1.000000    
    837 H915  c    0.176104 *  0.897784 *  0.619717 *   0.11250    1.000000    
    838 H915  c    0.795744 *  0.286984 *  0.641329 *   0.11250    1.000000    
    839 H915  c    0.011952 *  0.748284 *  0.583898 *   0.11250    1.000000    
    840 H915  c    0.410894 *  0.158084 *  0.557351 *   0.11250    1.000000    
    841 H915  c    0.111894 *  0.637484 *  0.557351 *   0.11250    1.000000    
    842 H915  c    0.532552 *  0.047284 *  0.583898 *   0.11250    1.000000    
    843 H915  c    0.410894 *  0.637484 *  0.557351 *   0.11250    1.000000    
    844 H915  c    0.111894 *  0.158084 *  0.557351 *   0.11250    1.000000    
    845 H915  c    0.532552 *  0.748284 *  0.583898 *   0.11250    1.000000    
    846 H915  c    0.011952 *  0.047284 *  0.583898 *   0.11250    1.000000    
    847 H915  c    0.470754 *  0.637484 *  0.703696 *   0.11250    1.000000    
    848 H915  c    0.050095 *  0.047284 *  0.677148 *   0.11250    1.000000    
    849 H915  c    0.570695 *  0.748284 *  0.677148 *   0.11250    1.000000    
    850 H915  c    0.171754 *  0.158084 *  0.703696 *   0.11250    1.000000    
    851 H915  c    0.570695 *  0.047284 *  0.677148 *   0.11250    1.000000    
    852 H915  c    0.050095 *  0.748284 *  0.677148 *   0.11250    1.000000    
    853 H915  c    0.470754 *  0.158084 *  0.703696 *   0.11250    1.000000    
    854 H915  c    0.171754 *  0.637484 *  0.703696 *   0.11250    1.000000    
    855 H915  c    0.335905 *  0.008584 *  0.739515 *   0.11250    1.000000    
    856 H915  c    0.733945 *  0.397784 *  0.761127 *   0.11250    1.000000    
    857 H915  c    0.335905 *  0.786984 *  0.739515 *   0.11250    1.000000    
    858 H915  c    0.955545 *  0.397784 *  0.761127 *   0.11250    1.000000    
    859 H915  c    0.946705 *  0.397784 *  0.739515 *   0.11250    1.000000    
    860 H915  c    0.344745 *  0.008584 *  0.761127 *   0.11250    1.000000    
    861 H915  c    0.725105 *  0.397784 *  0.739515 *   0.11250    1.000000    
    862 H915  c    0.344745 *  0.786984 *  0.761127 *   0.11250    1.000000    
    863 H915  c    0.560954 *  0.248284 *  0.703696 *   0.11250    1.000000    
    864 H915  c    0.959895 *  0.658084 *  0.677148 *   0.11250    1.000000    
    865 H915  c    0.660895 *  0.137484 *  0.677148 *   0.11250    1.000000    
    866 H915  c    0.081554 *  0.547284 *  0.703696 *   0.11250    1.000000    
    867 H915  c    0.959895 *  0.137484 *  0.677148 *   0.11250    1.000000    
    868 H915  c    0.660895 *  0.658084 *  0.677148 *   0.11250    1.000000    
    869 H915  c    0.081554 *  0.248284 *  0.703696 *   0.11250    1.000000    
    870 H915  c    0.560954 *  0.547284 *  0.703696 *   0.11250    1.000000    
    871 Zn172 c    0.222082 *  0.810939 *  0.461231 *   2.00000    1.000000    
    872 Zn172 c    0.126721 *  0.897789 *  0.440422 *   2.00000    1.000000    
    873 Zn172 c    0.300411 *  0.897779 *  0.440422 *   2.00000    1.000000    
    874 Zn172 c    0.222072 *  0.984629 *  0.461231 *   2.00000    1.000000    
    875 Zn172 c    0.808922 *  0.397779 *  0.461231 *   2.00000    1.000000    
    876 Zn172 c    0.713561 *  0.484629 *  0.440422 *   2.00000    1.000000    
    877 Zn172 c    0.635232 *  0.397789 *  0.461231 *   2.00000    1.000000    
    878 Zn172 c    0.713571 *  0.310939 *  0.440422 *   2.00000    1.000000    
    879 Zn172 c    0.771084 *  0.310939 *  0.581029 *   2.00000    1.000000    
    880 Zn172 c    0.675722 *  0.397789 *  0.560220 *   2.00000    1.000000    
    881 Zn172 c    0.849412 *  0.397779 *  0.560220 *   2.00000    1.000000    
    882 Zn172 c    0.771074 *  0.484629 *  0.581029 *   2.00000    1.000000    
    883 Zn172 c    0.357924 *  0.897779 *  0.581029 *   2.00000    1.000000    
    884 Zn172 c    0.262562 *  0.984629 *  0.560220 *   2.00000    1.000000    
    885 Zn172 c    0.184234 *  0.897789 *  0.581029 *   2.00000    1.000000    
    886 Zn172 c    0.262572 *  0.810939 *  0.560220 *   2.00000    1.000000    
    887 Zn172 c    0.320085 *  0.810939 *  0.700826 *   2.00000    1.000000    
    888 Zn172 c    0.224723 *  0.897789 *  0.680018 *   2.00000    1.000000    
    889 Zn172 c    0.398414 *  0.897779 *  0.680018 *   2.00000    1.000000    
    890 Zn172 c    0.320075 *  0.984629 *  0.700826 *   2.00000    1.000000    
    891 Zn172 c    0.906925 *  0.397779 *  0.700826 *   2.00000    1.000000    
    892 Zn172 c    0.811564 *  0.484629 *  0.680018 *   2.00000    1.000000    
    893 Zn172 c    0.733235 *  0.397789 *  0.700826 *   2.00000    1.000000    
    894 Zn172 c    0.811574 *  0.310939 *  0.680018 *   2.00000    1.000000    
--------------------------------------------------------------------------------



  Molecule list generated from bond lengths :

  Total number of molecules =    22

--------------------------------------------------------------------------------
Molecule No./:  Atoms
Periodicity  :  
--------------------------------------------------------------------------------
     1  0    : O3   c   186 H22  c   187
     2  0    : O3   c   199 H22  c   200
     3  0    : O176 c   543 O176 c   545 O177 c   548 O177 c   550 C912 c   631
             : C912 c   633 C912 c   636 C912 c   638 C916 c   639 C917 c   642
             : C902 c   643 C902 c   646 H915 c   791 H915 c   793 H915 c   796
             : H915 c   798
     4  0    : O177 c   544 O177 c   546 O176 c   547 O176 c   549 C912 c   632
             : C912 c   634 C912 c   635 C912 c   637 C917 c   640 C916 c   641
             : C902 c   644 C902 c   645 H915 c   792 H915 c   794 H915 c   795
             : H915 c   797
     5  0    : O170 c   553 O170 c   555 O170 c   574 O170 c   576 C912 c   647
             : C912 c   649 C912 c   668 C912 c   670 C913 c   671 C913 c   682
             : C902 c   683 C902 c   694 H915 c   799 H915 c   801 H915 c   820
             : H915 c   822
     6  0    : O170 c   554 O170 c   556 O170 c   573 O170 c   575 C912 c   648
             : C912 c   650 C912 c   667 C912 c   669 C913 c   672 C913 c   681
             : C902 c   684 C902 c   693 H915 c   800 H915 c   802 H915 c   819
             : H915 c   821
     7  0    : O170 c   557 O170 c   559 O170 c   569 O170 c   571 C912 c   651
             : C912 c   653 C912 c   663 C912 c   665 C913 c   673 C913 c   679
             : C902 c   685 C902 c   691 H915 c   803 H915 c   805 H915 c   815
             : H915 c   817
     8  0    : O170 c   558 O170 c   560 O170 c   570 O170 c   572 C912 c   652
             : C912 c   654 C912 c   664 C912 c   666 C913 c   674 C913 c   680
             : C902 c   686 C902 c   692 H915 c   804 H915 c   806 H915 c   816
             : H915 c   818
     9  0    : O170 c   561 O170 c   563 O170 c   566 O170 c   568 C912 c   655
             : C912 c   657 C912 c   660 C912 c   662 C913 c   675 C913 c   678
             : C902 c   687 C902 c   690 H915 c   807 H915 c   809 H915 c   812
             : H915 c   814
    10  0    : O170 c   562 O170 c   564 O170 c   565 O170 c   567 C912 c   656
             : C912 c   658 C912 c   659 C912 c   661 C913 c   676 C913 c   677
             : C902 c   688 C902 c   689 H915 c   808 H915 c   810 H915 c   811
             : H915 c   813
    11  0    : O170 c   579 O170 c   581 O170 c   600 O170 c   602 C912 c   695
             : C912 c   697 C912 c   716 C912 c   718 C913 c   719 C913 c   730
             : C902 c   731 C902 c   742 H915 c   823 H915 c   825 H915 c   844
             : H915 c   846
    12  0    : O170 c   580 O170 c   582 O170 c   599 O170 c   601 C912 c   696
             : C912 c   698 C912 c   715 C912 c   717 C913 c   720 C913 c   729
             : C902 c   732 C902 c   741 H915 c   824 H915 c   826 H915 c   843
             : H915 c   845
    13  0    : O170 c   583 O170 c   585 O170 c   595 O170 c   597 C912 c   699
             : C912 c   701 C912 c   711 C912 c   713 C913 c   721 C913 c   727
             : C902 c   733 C902 c   739 H915 c   827 H915 c   829 H915 c   839
             : H915 c   841
    14  0    : O170 c   584 O170 c   586 O170 c   596 O170 c   598 C912 c   700
             : C912 c   702 C912 c   712 C912 c   714 C913 c   722 C913 c   728
             : C902 c   734 C902 c   740 H915 c   828 H915 c   830 H915 c   840
             : H915 c   842
    15  0    : O170 c   587 O170 c   589 O170 c   592 O170 c   594 C912 c   703
             : C912 c   705 C912 c   708 C912 c   710 C913 c   723 C913 c   726
             : C902 c   735 C902 c   738 H915 c   831 H915 c   833 H915 c   836
             : H915 c   838
    16  0    : O170 c   588 O170 c   590 O170 c   591 O170 c   593 C912 c   704
             : C912 c   706 C912 c   707 C912 c   709 C913 c   724 C913 c   725
             : C902 c   736 C902 c   737 H915 c   832 H915 c   834 H915 c   835
             : H915 c   837
    17  0    : O170 c   605 O170 c   607 O170 c   628 O170 c   630 C912 c   743
             : C912 c   745 C912 c   764 C912 c   766 C913 c   767 C913 c   778
             : C902 c   779 C902 c   790 H915 c   847 H915 c   849 H915 c   868
             : H915 c   870
    18  0    : O170 c   606 O170 c   608 O170 c   627 O170 c   629 C912 c   744
             : C912 c   746 C912 c   763 C912 c   765 C913 c   768 C913 c   777
             : C902 c   780 C902 c   789 H915 c   848 H915 c   850 H915 c   867
             : H915 c   869
    19  0    : O170 c   609 O170 c   611 O170 c   623 O170 c   625 C912 c   747
             : C912 c   749 C912 c   759 C912 c   761 C913 c   769 C913 c   775
             : C902 c   781 C902 c   787 H915 c   851 H915 c   853 H915 c   863
             : H915 c   865
    20  0    : O170 c   610 O170 c   612 O170 c   624 O170 c   626 C912 c   748
             : C912 c   750 C912 c   760 C912 c   762 C913 c   770 C913 c   776
             : C902 c   782 C902 c   788 H915 c   852 H915 c   854 H915 c   864
             : H915 c   866
    21  0    : O170 c   613 O170 c   615 O173 c   619 O172 c   621 H21  c   622
             : C912 c   751 C912 c   753 C912 c   756 C912 c   758 C913 c   771
             : C914 c   774 C902 c   783 C902 c   786 H915 c   855 H915 c   857
             : H915 c   860 H915 c   862
[...]
   640 C917  c    -17.606911           0.174740   -0.461662   -6.836996
   641 C916  c    -17.091160          -0.016213    0.450547    6.111926
   642 C917  c    -17.331906          -1.039101    0.404833   -6.967773
   643 C902  c      2.382810          -0.571403    0.497419   -4.173004
   644 C902  c      1.038452          -0.115878    0.227498    3.786609
   645 C902  c      0.989645           0.144480   -0.319833   -3.842470
   646 C902  c      1.538984           0.487564   -0.362658    3.434655
   647 C912  c      1.047373          -1.077161    0.399490    0.509131
   648 C912  c      1.039925           0.275333   -1.176300   -0.496299
   649 C912  c      1.080312          -0.248901    1.184688   -0.478893
   650 C912  c      1.013818           1.041893   -0.430898    0.568766
   651 C912  c      1.046456          -0.267232   -1.176777   -0.478361
   652 C912  c      1.063425           0.260425    1.181489   -0.495903
   653 C912  c      1.030361          -1.069990   -0.410915    0.538437
   654 C912  c      1.026934           1.043420    0.424074    0.552360
   655 C912  c      1.035153          -0.030039    0.696516   -1.047290
   656 C912  c      1.061156          -0.703704    0.003745    1.055404
   657 C912  c      1.031773          -0.027988   -0.689085   -1.046329
   658 C912  c      1.071952           0.755228    0.003882    1.038057
   659 C912  c      1.070482           0.707750   -0.002483   -1.064777
   660 C912  c      1.039061           0.030011    0.690658    1.055698
   661 C912  c      1.073519          -0.751821   -0.002647   -1.044571
   662 C912  c      1.039623           0.031838   -0.695244    1.054996
   663 C912  c      1.065706           0.285575    1.190927    0.487531
   664 C912  c      1.055454          -1.072107   -0.437859   -0.554357
   665 C912  c      1.042671           1.084725    0.427822   -0.534602
   666 C912  c      1.075043          -0.288451   -1.194938    0.499465
   667 C912  c      1.036355          -1.075226    0.443490   -0.562472
   668 C912  c      1.069983           1.084548   -0.416127   -0.522584
   669 C912  c      1.049401          -0.299804    1.176001    0.508024
   670 C912  c      1.094875           0.268855   -1.212394    0.470341
   671 C913  c    -17.552177           4.705426   -5.343721   -0.270866
   672 C913  c    -17.555397          -4.688363    5.343581   -0.448328
   673 C913  c    -17.554753           4.704067    5.335673   -0.318719
   674 C913  c    -17.557271          -4.671081   -5.365430   -0.421385
   675 C913  c    -17.502620           0.192598    0.010774    6.881646
   676 C913  c    -17.482022          -0.070544   -0.026598   -6.994126
   677 C913  c    -17.467769           0.116862    0.018026    7.007023
   678 C913  c    -17.486753          -0.211311    0.010374   -6.895408
   679 C913  c    -17.490153          -4.692100   -5.320061    0.340356
   680 C913  c    -17.473797           4.656548    5.346012    0.383800
   681 C913  c    -17.488010           4.615843   -5.388495    0.294863
   682 C913  c    -17.477164          -4.746648    5.269506    0.415159
   683 C902  c      1.177737          -2.292736    2.705101    0.061881
   684 C902  c      1.144346           2.274701   -2.715820    0.135071
   685 C902  c      1.157355          -2.302637   -2.700924    0.098929
   686 C902  c      1.158997           2.261412    2.725847    0.113259
   687 C902  c      1.239413          -0.098154    0.006880   -3.733592
   688 C902  c      1.221160           0.073519    0.013385    3.621428
   689 C902  c      1.231600          -0.078635   -0.007754   -3.628456
   690 C902  c      1.251078           0.109728   -0.009449    3.742131
   691 C902  c      1.188970           2.315920    2.718061   -0.099340
   692 C902  c      1.197542          -2.294946   -2.733594   -0.099171
   693 C902  c      1.175429          -2.306461    2.718880   -0.095475
   694 C902  c      1.214417           2.301968   -2.729277   -0.103746
   695 C912  c      1.023419          -1.059687    0.443870    0.465196
   696 C912  c      1.081565           0.251073   -1.186633   -0.559016
   697 C912  c      1.082226          -0.249088    1.188462   -0.567342
   698 C912  c      1.027805           1.060987   -0.445602    0.472642
   699 C912  c      1.082839          -0.250228   -1.187567   -0.568394
   700 C912  c      1.080925           0.250039    1.187364   -0.558007
   701 C912  c      1.023881          -1.059121   -0.444366    0.467048
   702 C912  c      1.027254           1.061227    0.445280    0.471289
   703 C912  c      1.056254          -0.011930    0.701345   -1.051498
   704 C912  c      1.052146          -0.705807    0.000007    1.055307
   705 C912  c      1.055972          -0.012178   -0.701039   -1.051327
   706 C912  c      1.056926           0.734567    0.000451    1.045956
   707 C912  c      1.051552           0.705655   -0.000159   -1.054790
   708 C912  c      1.057465           0.012038    0.700941    1.053365
   709 C912  c      1.057012          -0.734821   -0.000594   -1.045838
   710 C912  c      1.057419           0.011758   -0.700978    1.053472
   711 C912  c      1.082049           0.249650    1.186984    0.567800
   712 C912  c      1.026538          -1.060936   -0.444969   -0.470416
   713 C912  c      1.023874           1.059256    0.443907   -0.467027
   714 C912  c      1.080966          -0.249554   -1.187150    0.558194
   715 C912  c      1.027648          -1.061072    0.445108   -0.472251
   716 C912  c      1.022533           1.059174   -0.443477   -0.464579
   717 C912  c      1.080859          -0.250726    1.185878    0.558890
   718 C912  c      1.082255           0.248167   -1.188446    0.567109
   719 C913  c    -17.519325           4.773936   -5.274605   -0.061246
   720 C913  c    -17.516489          -4.746548    5.294744   -0.082100
   721 C913  c    -17.518714           4.774896    5.274375   -0.065485
   722 C913  c    -17.517346          -4.745012   -5.295656   -0.080047
   723 C913  c    -17.482325           0.084726    0.001089    6.930537
   724 C913  c    -17.490348          -0.047508   -0.002632   -6.973917
   725 C913  c    -17.483932           0.045114    0.001651    6.960067
   726 C913  c    -17.468489          -0.076533   -0.000231   -6.913774
   727 C913  c    -17.521576          -4.771429   -5.281322    0.065695
   728 C913  c    -17.518243           4.746784    5.296310    0.083636
   729 C913  c    -17.517970           4.745383   -5.298372    0.080910
   730 C913  c    -17.522161          -4.774347    5.278174    0.067961
   731 C902  c      1.177610          -2.256398    2.746539   -0.138179
   732 C902  c      1.181327           2.260334   -2.749651   -0.114143
   733 C902  c      1.177856          -2.257050   -2.745251   -0.135870
   734 C902  c      1.180976           2.259512    2.751059   -0.115458
   735 C902  c      1.253205          -0.043603    0.000176   -3.713553
   736 C902  c      1.224189           0.044724    0.001222    3.653255
   737 C902  c      1.223768          -0.045154   -0.000846   -3.652901
   738 C902  c      1.256547           0.039567   -0.000119    3.716804
   739 C902  c      1.177056           2.255346    2.746010    0.134316
   740 C902  c      1.180571          -2.259561   -2.750927    0.114388
   741 C902  c      1.180642          -2.260329    2.749177    0.113719
   742 C902  c      1.176852           2.254491   -2.747674    0.135602
   743 C912  c      1.035251          -1.063663    0.432524    0.517542
   744 C912  c      1.071674           0.269738   -1.186346   -0.509156
   745 C912  c      1.074136          -0.269645    1.187041   -0.513490
   746 C912  c      1.034811           1.065060   -0.431759    0.517984
   747 C912  c      1.070725          -0.270311   -1.186775   -0.516096
   748 C912  c      1.075040           0.269836    1.185820   -0.507472
   749 C912  c      1.028442          -1.063280   -0.433314    0.515204
   750 C912  c      1.042193           1.064881    0.431531    0.521621
   751 C912  c      1.204533          -0.008514    0.643541   -0.961212
   752 C912  c      1.413230          -0.521488    0.016847    1.284984
   753 C912  c      1.256964          -0.006108   -0.683748   -0.924041
   754 C912  c      1.545898           0.617294    0.015485    1.377955
   755 C912  c      1.252912           0.679195   -0.005522   -0.921198
   756 C912  c      1.410762           0.003793    0.525173    1.281810
   757 C912  c      1.203908          -0.648298   -0.003250   -0.955815
   758 C912  c      1.545241           0.006203   -0.613252    1.378134
   759 C912  c      1.064552           0.272310    1.186967    0.508616
   760 C912  c      1.042687          -1.065608   -0.431529   -0.520969
   761 C912  c      1.035730           1.064674    0.432224   -0.521895
   762 C912  c      1.075732          -0.271015   -1.186474    0.507767
   763 C912  c      1.039139          -1.066057    0.431652   -0.521693
   764 C912  c      1.039320           1.065188   -0.431397   -0.520295
   765 C912  c      1.069228          -0.271479    1.187482    0.505511
   766 C912  c      1.070436           0.271198   -1.186337    0.509541
   767 C913  c    -17.514543           4.711626   -5.319199   -0.279877
   768 C913  c    -17.514938          -4.698382    5.328409   -0.278607
   769 C913  c    -17.517033           4.712193    5.318136   -0.275627
   770 C913  c    -17.512243          -4.696369   -5.331087   -0.281034
   771 C913  c    -17.433576           0.044633    0.012091    6.974318
   772 C914  c    -14.311616           0.573745   -0.048587   -4.516633
   773 C913  c    -17.446216          -0.001570    0.051454    6.965901
   774 C914  c    -14.314936          -0.020674   -0.590522   -4.515032
   775 C913  c    -17.515062          -4.708420   -5.323358    0.281875
   776 C913  c    -17.510420           4.700981    5.329324    0.290967
   777 C913  c    -17.512045           4.701274   -5.327326    0.289796
   778 C913  c    -17.513795          -4.707585    5.325740    0.280248
   779 C902  c      1.181608          -2.285722    2.730018    0.030262
   780 C902  c      1.181319           2.287872   -2.731289    0.036610
   781 C902  c      1.177146          -2.286334   -2.730427    0.026241
   782 C902  c      1.185928           2.287121    2.730659    0.040299
   783 C902  c      1.371658          -0.023766   -0.022022   -3.601172
   784 C902  c      2.109768           0.099336    0.050194    4.377744
   785 C902  c      1.365682           0.008996   -0.023445   -3.594983
   786 C902  c      2.107257           0.018516   -0.084414    4.377220
   787 C902  c      1.178519           2.286176    2.731975   -0.034561
   788 C902  c      1.187234          -2.287907   -2.731092   -0.042376
   789 C902  c      1.183078          -2.288455    2.732165   -0.042882
   790 C902  c      1.182447           2.286012   -2.730827   -0.033780
   791 H915  c     -0.986339           0.033795    0.511964    0.036155
   792 H915  c     -2.107943          -0.561935   -0.035892   -0.218805
   793 H915  c     -0.730350          -0.097018   -0.350100   -0.513740
   794 H915  c     -2.070890           0.609344   -0.047256   -0.232005
   795 H915  c     -1.989233           0.674877   -0.065895    0.122036
   796 H915  c     -1.623263          -0.079089    0.598280   -0.432196
   797 H915  c     -2.136309          -0.671634   -0.036825    0.147341
   798 H915  c     -1.484433          -0.056481   -0.463686   -0.355285
   799 H915  c     -1.896429          -0.129192   -0.477317    0.352256
   800 H915  c     -1.857028          -0.384006   -0.119640   -0.363962
   801 H915  c     -1.820549           0.433006    0.109396   -0.361541
   802 H915  c     -1.928192           0.106732    0.468160    0.379591
   803 H915  c     -1.860163           0.414417   -0.114413   -0.355755
   804 H915  c     -1.830515          -0.400085    0.113330   -0.370243
   805 H915  c     -1.905927          -0.124116    0.464921    0.363918
   806 H915  c     -1.920915           0.109858   -0.478046    0.373230
   807 H915  c     -1.929889           0.006774    0.544773    0.278780
   808 H915  c     -1.883615          -0.543354   -0.000940   -0.243823
   809 H915  c     -1.938935           0.008810   -0.549220    0.288304
   810 H915  c     -1.855939           0.526989   -0.000759   -0.232909
   811 H915  c     -1.864286           0.541832    0.000587    0.226877
   812 H915  c     -1.924652          -0.010009    0.547841   -0.275575
   813 H915  c     -1.855297          -0.527863    0.000441    0.234452
   814 H915  c     -1.922970          -0.008566   -0.545801   -0.275498
   815 H915  c     -1.826542          -0.391576    0.125772    0.365889
   816 H915  c     -1.863926          -0.139630    0.459562   -0.383845
   817 H915  c     -1.884559           0.138706   -0.447866   -0.358753
   818 H915  c     -1.808623           0.373255   -0.131066    0.370596
   819 H915  c     -1.878340          -0.147231   -0.417506   -0.365192
   820 H915  c     -1.862425           0.128623    0.496460   -0.379108
   821 H915  c     -1.846404           0.388524    0.109521    0.384628
   822 H915  c     -1.786490          -0.379549   -0.148957    0.345791
   823 H915  c     -1.942361          -0.116725   -0.498734    0.393386
   824 H915  c     -1.790610          -0.375966   -0.130358   -0.352296
   825 H915  c     -1.785008           0.371090    0.135649   -0.349332
   826 H915  c     -1.934040           0.119925    0.491974    0.389091
   827 H915  c     -1.784311           0.370342   -0.135243   -0.350459
   828 H915  c     -1.791372          -0.376614    0.130607   -0.351419
   829 H915  c     -1.941594          -0.116154    0.497711    0.393816
   830 H915  c     -1.934940           0.120294   -0.492970    0.388748
   831 H915  c     -1.902078           0.004027    0.543562    0.269288
   832 H915  c     -1.894527          -0.543056   -0.000454   -0.249233
   833 H915  c     -1.902702           0.003859   -0.543680    0.269815
   834 H915  c     -1.881393           0.532850   -0.000110   -0.244787
   835 H915  c     -1.895317           0.542905    0.000072    0.248740
   836 H915  c     -1.900171          -0.002667    0.542921   -0.266700
   837 H915  c     -1.881005          -0.532463   -0.000264    0.243390
   838 H915  c     -1.900158          -0.002887   -0.542718   -0.266421
   839 H915  c     -1.785972          -0.371356    0.133623    0.351052
   840 H915  c     -1.936810          -0.119510    0.494138   -0.387730
   841 H915  c     -1.941531           0.116335   -0.497271   -0.393031
   842 H915  c     -1.791309           0.376343   -0.130311    0.351519
   843 H915  c     -1.934609          -0.119619   -0.492038   -0.388212
   844 H915  c     -1.944263           0.116119    0.499959   -0.392491
   845 H915  c     -1.792052           0.376521    0.129212    0.352334
   846 H915  c     -1.784963          -0.371172   -0.134994    0.350031
   847 H915  c     -1.912250          -0.122229   -0.470715    0.370291
   848 H915  c     -1.817233          -0.389597   -0.121892   -0.362758
   849 H915  c     -1.812164           0.385524    0.124314   -0.361949
   850 H915  c     -1.912173           0.123812    0.467466    0.365847
   851 H915  c     -1.814575           0.385195   -0.124390   -0.363102
   852 H915  c     -1.815134          -0.389682    0.121108   -0.362256
   853 H915  c     -1.920894          -0.122364    0.468871    0.367041
   854 H915  c     -1.902565           0.123451   -0.468302    0.369894
   855 H915  c     -1.834096          -0.000385    0.489242    0.292437
   856 H915  c     -1.667383          -0.248041    0.002673   -0.163811
   857 H915  c     -1.779774           0.001396   -0.503518    0.333597
   858 H915  c     -1.392510           0.268747    0.003921    0.039527
   859 H915  c     -1.787913           0.505636    0.004284    0.338982
   860 H915  c     -1.671330          -0.003902    0.246653   -0.165963
   861 H915  c     -1.834996          -0.488512    0.005828    0.295491
   862 H915  c     -1.393455          -0.002276   -0.269086    0.039111
   863 H915  c     -1.825565          -0.380571    0.125020    0.355649
   864 H915  c     -1.902176          -0.123535    0.471437   -0.369820
   865 H915  c     -1.908525           0.122560   -0.472562   -0.373995
   866 H915  c     -1.813977           0.385058   -0.121673    0.362338
   867 H915  c     -1.904911          -0.123873   -0.471478   -0.370693
   868 H915  c     -1.905439           0.122982    0.472610   -0.372461
   869 H915  c     -1.820901           0.383941    0.123995    0.359109
   870 H915  c     -1.819661          -0.382727   -0.122765    0.358063
   871 Zn172 c    -20.957034          -0.010226   -0.365749   -0.006167
   872 Zn172 c    -20.750148          -0.553333    0.039628    0.222361
   873 Zn172 c    -20.802720           0.520975    0.030183    0.269330
   874 Zn172 c    -20.938082          -0.009990    0.398904    0.009758
   875 Zn172 c    -20.630616           0.444107    0.016470   -0.032556
   876 Zn172 c    -20.846141           0.104789    0.368246   -0.173876
   877 Zn172 c    -20.588804          -0.388994    0.018598   -0.033706
   878 Zn172 c    -20.689566           0.088722   -0.156042   -0.297954
   879 Zn172 c    -20.976911          -0.011841   -0.234975    0.085625
   880 Zn172 c    -20.587178          -0.527210    0.003010    0.086444
   881 Zn172 c    -20.541526           0.512242    0.002410    0.043873
   882 Zn172 c    -20.974970          -0.011888    0.238706    0.086343
   883 Zn172 c    -20.604519           0.546048    0.000664   -0.131174
   884 Zn172 c    -21.001470           0.022905    0.267766   -0.035080
   885 Zn172 c    -20.568684          -0.547783    0.001233   -0.110783
   886 Zn172 c    -20.994521           0.021559   -0.269707   -0.040842
   887 Zn172 c    -20.885167          -0.007608   -0.274300    0.125398
   888 Zn172 c    -20.661192          -0.480655    0.001296    0.108627
   889 Zn172 c    -20.634682           0.470549    0.001160    0.084231
   890 Zn172 c    -20.891935          -0.006160    0.281376    0.114847
   891 Zn172 c    -20.668840           0.502562   -0.002604   -0.141429
   892 Zn172 c    -20.906985           0.006891    0.307809   -0.056945
   893 Zn172 c    -20.661886          -0.512586   -0.004847   -0.146159
   894 Zn172 c    -20.907805           0.007030   -0.307028   -0.058436
-------------------------------------------------------------------------------

  Total time to end of lattice properties =   13324.1265 s


  Peak dynamic memory used =     148.21 MB 


  Timing analysis for GULP :

--------------------------------------------------------------------------------
  Task / Subroutine                                          Time (Seconds)
--------------------------------------------------------------------------------
  Calculation of reciprocal space energy and derivatives       3084.7620
  Calculation of real space energy and derivatives             8691.4993
  Calculation of three-body energy and derivatives               27.8405
  Calculation of four-body energy and derivatives                29.9746
  Calculation of molecules and connectivity                       0.9864
  Calculation of phonons                                         42.9436
  Calculation of scattering                                       0.0000
  Calculation of matrix inversion                              1407.5107
  Symmetry generation of equivalent positions                     0.0132
  Global summation overhead                                       0.0276
--------------------------------------------------------------------------------
  Total CPU time                                              13324.1267
--------------------------------------------------------------------------------


  Dump file written as fit1.res                                                


  Job Finished at 13:57.19 18th May        2016                               

