********************************************************************************
*                       GENERAL UTILITY LATTICE PROGRAM                        *
*                                 Julian Gale                                  *
*                      Nanochemistry Research Institute                        *
*                           Department of Chemistry                            *
*                    Curtin University, Western Australia                      *
********************************************************************************
* Version = 4.4.0 * Last modified = 31st March 2015                            *
********************************************************************************
*  optimise     - perform optimisation run                                     *
*  conv         - constant volume calculation                                  *
*  property     - calculate properties for final geometry                      *
*  phonon       - calculate phonons for final geometry                         *
*  potential    - calculate electrostatic site potentials                      *
*  molmec       - molecule option activated, Coulomb subtract 1-2/1-3 terms    *
*  fix_molecule - fix atoms of molecule as at the start of the run             *
*  compare      - compare initial and final structures                         *
********************************************************************************

  Job Started  at 16:01.11 27th May        2016                               

  Number of CPUs =     1


  Total number of configurations input =   1

********************************************************************************
*  Input for Configuration =   1                                               *
********************************************************************************

  Formula = Ti180H84O446C160Zn24                                        

  Number of irreducible atoms/shells =     894


  Total number atoms/shells =     894

  Dimensionality = 3               :  Bulk   



  Cartesian lattice vectors (Angstroms) :

       17.724000    0.000000    0.000000
        0.000000   19.461000    0.000000
        0.000000    0.000000  114.868000

  Cell parameters (Angstroms/Degrees):

  a =      17.7240    alpha =  90.0000
  b =      19.4610    beta  =  90.0000
  c =     114.8680    gamma =  90.0000

  Initial cell volume =       39621.047527 Angs**3

  Temperature of configuration =  0.000     K 

  Pressure of configuration =         0.000 GPa 

  Fractional coordinates of asymmetric unit :

--------------------------------------------------------------------------------
   No.  Atomic       x           y          z         Charge      Occupancy
        Label      (Frac)      (Frac)     (Frac)        (e)         (Frac)  
--------------------------------------------------------------------------------
      1 Ti    c    0.320000    0.733333    0.339270     2.43600    1.000000    
      2 Ti    c    0.147672 *  0.399540 *  0.341542 *   2.43600    1.000000    
      3 Ti    c    0.982367 *  0.400624 *  0.340511 *   2.43600    1.000000    
      4 Ti    c    0.813448 *  0.399042 *  0.339744 *   2.43600    1.000000    
      5 Ti    c    0.649008 *  0.399980 *  0.341521 *   2.43600    1.000000    
      6 Ti    c    0.482054 *  0.399846 *  0.341430 *   2.43600    1.000000    
      7 Ti    c    0.315052 *  0.399358 *  0.341414 *   2.43600    1.000000    
      8 Ti    c    0.148404 *  0.065937 *  0.340882 *   2.43600    1.000000    
      9 Ti    c    0.982290 *  0.065662 *  0.341348 *   2.43600    1.000000    
     10 Ti    c    0.815422 *  0.065912 *  0.341342 *   2.43600    1.000000    
     11 Ti    c    0.648720 *  0.066085 *  0.341361 *   2.43600    1.000000    
     12 Ti    c    0.481847 *  0.066375 *  0.341364 *   2.43600    1.000000    
     13 Ti    c    0.315188 *  0.065941 *  0.341287 *   2.43600    1.000000    
     14 Ti    c    0.143852 *  0.733600 *  0.338744 *   2.43600    1.000000    
     15 Ti    c    0.981379 *  0.732606 *  0.341627 *   2.43600    1.000000    
     16 Ti    c    0.815349 *  0.731996 *  0.341515 *   2.43600    1.000000    
     17 Ti    c    0.648952 *  0.732924 *  0.341450 *   2.43600    1.000000    
     18 Ti    c    0.482945 *  0.732730 *  0.341465 *   2.43600    1.000000    
     19 Ti    c    0.064701 *  0.233346 *  0.339245 *   2.43600    1.000000    
     20 Ti    c    0.898336 *  0.230503 *  0.339535 *   2.43600    1.000000    
     21 Ti    c    0.732048 *  0.233156 *  0.339173 *   2.43600    1.000000    
     22 Ti    c    0.899804 *  0.898486 *  0.339302 *   2.43600    1.000000    
     23 Ti    c    0.565114 *  0.899445 *  0.339209 *   2.43600    1.000000    
     24 Ti    c    0.398003 *  0.899666 *  0.339111 *   2.43600    1.000000    
     25 Ti    c    0.898529 *  0.565513 *  0.340667 *   2.43600    1.000000    
     26 Ti    c    0.565459 *  0.566177 *  0.339111 *   2.43600    1.000000    
     27 Ti    c    0.398630 *  0.566723 *  0.339169 *   2.43600    1.000000    
     28 Ti    c    0.231745 *  0.232017 *  0.339208 *   2.43600    1.000000    
     29 Ti    c    0.565438 *  0.233237 *  0.339241 *   2.43600    1.000000    
     30 Ti    c    0.398609 *  0.233038 *  0.339244 *   2.43600    1.000000    
     31 Ti    c    0.231575 *  0.900915 *  0.340241 *   2.43600    1.000000    
     32 Ti    c    0.066632 *  0.899784 *  0.341073 *   2.43600    1.000000    
     33 Ti    c    0.732457 *  0.899253 *  0.339290 *   2.43600    1.000000    
     34 Ti    c    0.231792 *  0.563995 *  0.338785 *   2.43600    1.000000    
     35 Ti    c    0.065088 *  0.567804 *  0.339014 *   2.43600    1.000000    
     36 Ti    c    0.731936 *  0.566563 *  0.338931 *   2.43600    1.000000    
     37 Ti    c    0.315480 *  0.566071 *  0.311824 *   2.43600    1.000000    
     38 Ti    c    0.148576 *  0.232777 *  0.312054 *   2.43600    1.000000    
     39 Ti    c    0.981770 *  0.232595 *  0.312162 *   2.43600    1.000000    
     40 Ti    c    0.815274 *  0.232583 *  0.312168 *   2.43600    1.000000    
     41 Ti    c    0.648453 *  0.232769 *  0.311980 *   2.43600    1.000000    
     42 Ti    c    0.481938 *  0.232966 *  0.312066 *   2.43600    1.000000    
     43 Ti    c    0.315256 *  0.232954 *  0.312048 *   2.43600    1.000000    
     44 Ti    c    0.148301 *  0.899600 *  0.313448 *   2.43600    1.000000    
     45 Ti    c    0.982195 *  0.899294 *  0.312635 *   2.43600    1.000000    
     46 Ti    c    0.815323 *  0.899217 *  0.312115 *   2.43600    1.000000    
     47 Ti    c    0.648766 *  0.899415 *  0.312093 *   2.43600    1.000000    
     48 Ti    c    0.482250 *  0.899650 *  0.311944 *   2.43600    1.000000    
     49 Ti    c    0.315262 *  0.899732 *  0.312383 *   2.43600    1.000000    
     50 Ti    c    0.148579 *  0.566253 *  0.311756 *   2.43600    1.000000    
     51 Ti    c    0.981402 *  0.565880 *  0.312518 *   2.43600    1.000000    
     52 Ti    c    0.815585 *  0.565799 *  0.312582 *   2.43600    1.000000    
     53 Ti    c    0.648373 *  0.566301 *  0.311828 *   2.43600    1.000000    
     54 Ti    c    0.481991 *  0.566086 *  0.311935 *   2.43600    1.000000    
     55 Ti    c    0.400337 *  0.732749 *  0.312212 *   2.43600    1.000000    
     56 Ti    c    0.232026 *  0.399489 *  0.312843 *   2.43600    1.000000    
     57 Ti    c    0.065844 *  0.398969 *  0.312675 *   2.43600    1.000000    
     58 Ti    c    0.898789 *  0.399159 *  0.312576 *   2.43600    1.000000    
     59 Ti    c    0.730901 *  0.399093 *  0.312468 *   2.43600    1.000000    
     60 Ti    c    0.564968 *  0.399532 *  0.312846 *   2.43600    1.000000    
     61 Ti    c    0.398540 *  0.399332 *  0.312835 *   2.43600    1.000000    
     62 Ti    c    0.232063 *  0.066298 *  0.312783 *   2.43600    1.000000    
     63 Ti    c    0.065143 *  0.065985 *  0.312819 *   2.43600    1.000000    
     64 Ti    c    0.898601 *  0.065878 *  0.312866 *   2.43600    1.000000    
     65 Ti    c    0.731927 *  0.065904 *  0.312847 *   2.43600    1.000000    
     66 Ti    c    0.565295 *  0.066210 *  0.312833 *   2.43600    1.000000    
     67 Ti    c    0.398692 *  0.066474 *  0.312826 *   2.43600    1.000000    
     68 Ti    c    0.232173 *  0.733062 *  0.312311 *   2.43600    1.000000    
     69 Ti    c    0.063334 *  0.732588 *  0.312207 *   2.43600    1.000000    
     70 Ti    c    0.898065 *  0.732508 *  0.312969 *   2.43600    1.000000    
     71 Ti    c    0.731945 *  0.732496 *  0.312882 *   2.43600    1.000000    
     72 Ti    c    0.565772 *  0.732913 *  0.312805 *   2.43600    1.000000    
     73 Ti    c    0.315278 *  0.732827 *  0.284625 *   2.43600    1.000000    
     74 Ti    c    0.148641 *  0.399409 *  0.284967 *   2.43600    1.000000    
     75 Ti    c    0.981930 *  0.399354 *  0.284865 *   2.43600    1.000000    
     76 Ti    c    0.815271 *  0.399364 *  0.284790 *   2.43600    1.000000    
     77 Ti    c    0.648388 *  0.399392 *  0.284911 *   2.43600    1.000000    
     78 Ti    c    0.481832 *  0.399438 *  0.284965 *   2.43600    1.000000    
     79 Ti    c    0.315261 *  0.399447 *  0.284978 *   2.43600    1.000000    
     80 Ti    c    0.148569 *  0.066022 *  0.285063 *   2.43600    1.000000    
     81 Ti    c    0.981919 *  0.065987 *  0.285099 *   2.43600    1.000000    
     82 Ti    c    0.815262 *  0.066011 *  0.285061 *   2.43600    1.000000    
     83 Ti    c    0.648624 *  0.066072 *  0.285024 *   2.43600    1.000000    
     84 Ti    c    0.481968 *  0.066076 *  0.285029 *   2.43600    1.000000    
     85 Ti    c    0.315277 *  0.066069 *  0.285065 *   2.43600    1.000000    
     86 Ti    c    0.148535 *  0.732734 *  0.284655 *   2.43600    1.000000    
     87 Ti    c    0.981529 *  0.732701 *  0.284925 *   2.43600    1.000000    
     88 Ti    c    0.815217 *  0.732698 *  0.285073 *   2.43600    1.000000    
     89 Ti    c    0.648730 *  0.732677 *  0.285006 *   2.43600    1.000000    
     90 Ti    c    0.482257 *  0.732794 *  0.284791 *   2.43600    1.000000    
     91 Ti    c    0.398688 *  0.566155 *  0.284851 *   2.43600    1.000000    
     92 Ti    c    0.231902 *  0.232699 *  0.285012 *   2.43600    1.000000    
     93 Ti    c    0.065194 *  0.232695 *  0.285041 *   2.43600    1.000000    
     94 Ti    c    0.898581 *  0.232703 *  0.285058 *   2.43600    1.000000    
     95 Ti    c    0.731982 *  0.232752 *  0.285008 *   2.43600    1.000000    
     96 Ti    c    0.565194 *  0.232722 *  0.284988 *   2.43600    1.000000    
     97 Ti    c    0.398573 *  0.232786 *  0.285007 *   2.43600    1.000000    
     98 Ti    c    0.231432 *  0.899378 *  0.285459 *   2.43600    1.000000    
     99 Ti    c    0.065608 *  0.899325 *  0.285546 *   2.43600    1.000000    
    100 Ti    c    0.898978 *  0.899355 *  0.285235 *   2.43600    1.000000    
    101 Ti    c    0.732078 *  0.899387 *  0.285059 *   2.43600    1.000000    
    102 Ti    c    0.565360 *  0.899403 *  0.284999 *   2.43600    1.000000    
    103 Ti    c    0.398299 *  0.899422 *  0.285078 *   2.43600    1.000000    
    104 Ti    c    0.231872 *  0.566072 *  0.284821 *   2.43600    1.000000    
    105 Ti    c    0.064771 *  0.566048 *  0.285011 *   2.43600    1.000000    
    106 Ti    c    0.898492 *  0.565929 *  0.285240 *   2.43600    1.000000    
    107 Ti    c    0.732301 *  0.565947 *  0.285059 *   2.43600    1.000000    
    108 Ti    c    0.565326 *  0.566001 *  0.284889 *   2.43600    1.000000    
    109 Ti    c    0.315250 *  0.566072 *  0.257797 *   2.43600    1.000000    
    110 Ti    c    0.148570 *  0.232728 *  0.257977 *   2.43600    1.000000    
    111 Ti    c    0.981909 *  0.232713 *  0.257986 *   2.43600    1.000000    
    112 Ti    c    0.815266 *  0.232706 *  0.257973 *   2.43600    1.000000    
    113 Ti    c    0.648584 *  0.232712 *  0.257944 *   2.43600    1.000000    
    114 Ti    c    0.481904 *  0.232716 *  0.257950 *   2.43600    1.000000    
    115 Ti    c    0.315247 *  0.232727 *  0.257962 *   2.43600    1.000000    
    116 Ti    c    0.148549 *  0.899379 *  0.258315 *   2.43600    1.000000    
    117 Ti    c    0.982099 *  0.899384 *  0.258242 *   2.43600    1.000000    
    118 Ti    c    0.815403 *  0.899399 *  0.258078 *   2.43600    1.000000    
    119 Ti    c    0.648649 *  0.899399 *  0.257983 *   2.43600    1.000000    
    120 Ti    c    0.481858 *  0.899389 *  0.257982 *   2.43600    1.000000    
    121 Ti    c    0.315054 *  0.899385 *  0.258133 *   2.43600    1.000000    
    122 Ti    c    0.148459 *  0.566051 *  0.257858 *   2.43600    1.000000    
    123 Ti    c    0.981788 *  0.566043 *  0.258018 *   2.43600    1.000000    
    124 Ti    c    0.815324 *  0.566032 *  0.258044 *   2.43600    1.000000    
    125 Ti    c    0.648695 *  0.566045 *  0.257912 *   2.43600    1.000000    
    126 Ti    c    0.481966 *  0.566077 *  0.257833 *   2.43600    1.000000    
    127 Ti    c    0.398710 *  0.732762 *  0.256997 *   2.43600    1.000000    
    128 Ti    c    0.231928 *  0.399392 *  0.257144 *   2.43600    1.000000    
    129 Ti    c    0.065295 *  0.399382 *  0.257126 *   2.43600    1.000000    
    130 Ti    c    0.898609 *  0.399366 *  0.257091 *   2.43600    1.000000    
    131 Ti    c    0.731849 *  0.399372 *  0.257093 *   2.43600    1.000000    
    132 Ti    c    0.565197 *  0.399394 *  0.257123 *   2.43600    1.000000    
    133 Ti    c    0.398567 *  0.399387 *  0.257144 *   2.43600    1.000000    
    134 Ti    c    0.231901 *  0.066055 *  0.257266 *   2.43600    1.000000    
    135 Ti    c    0.065256 *  0.066045 *  0.257283 *   2.43600    1.000000    
    136 Ti    c    0.898638 *  0.066016 *  0.257266 *   2.43600    1.000000    
    137 Ti    c    0.731962 *  0.066037 *  0.257228 *   2.43600    1.000000    
    138 Ti    c    0.565254 *  0.066040 *  0.257212 *   2.43600    1.000000    
    139 Ti    c    0.398551 *  0.066020 *  0.257231 *   2.43600    1.000000    
    140 Ti    c    0.231863 *  0.732725 *  0.256981 *   2.43600    1.000000    
    141 Ti    c    0.065049 *  0.732717 *  0.257088 *   2.43600    1.000000    
    142 Ti    c    0.898480 *  0.732756 *  0.257196 *   2.43600    1.000000    
    143 Ti    c    0.731993 *  0.732727 *  0.257203 *   2.43600    1.000000    
    144 Ti    c    0.565434 *  0.732734 *  0.257099 *   2.43600    1.000000    
    145 Ti    c    0.398617 *  0.566081 *  0.230653 *   2.43600    1.000000    
    146 Ti    c    0.315216 *  0.732829 *  0.228477 *   2.43600    1.000000    
    147 Ti    c    0.231900 *  0.232664 *  0.230801 *   2.43600    1.000000    
    148 Ti    c    0.148562 *  0.399367 *  0.228599 *   2.43600    1.000000    
    149 Ti    c    0.065247 *  0.232668 *  0.230812 *   2.43600    1.000000    
    150 Ti    c    0.981914 *  0.399366 *  0.228576 *   2.43600    1.000000    
    151 Ti    c    0.898603 *  0.232691 *  0.230807 *   2.43600    1.000000    
    152 Ti    c    0.815262 *  0.399365 *  0.228562 *   2.43600    1.000000    
    153 Ti    c    0.731942 *  0.232677 *  0.230786 *   2.43600    1.000000    
    154 Ti    c    0.648597 *  0.399366 *  0.228577 *   2.43600    1.000000    
    155 Ti    c    0.565246 *  0.232673 *  0.230776 *   2.43600    1.000000    
    156 Ti    c    0.481920 *  0.399362 *  0.228593 *   2.43600    1.000000    
    157 Ti    c    0.398566 *  0.232687 *  0.230786 *   2.43600    1.000000    
    158 Ti    c    0.315233 *  0.399363 *  0.228603 *   2.43600    1.000000    
    159 Ti    c    0.231770 *  0.899403 *  0.231003 *   2.43600    1.000000    
    160 Ti    c    0.148562 *  0.065979 *  0.228745 *   2.43600    1.000000    
    161 Ti    c    0.065302 *  0.899402 *  0.231059 *   2.43600    1.000000    
    162 Ti    c    0.981957 *  0.065980 *  0.228743 *   2.43600    1.000000    
    163 Ti    c    0.898749 *  0.899398 *  0.230966 *   2.43600    1.000000    
    164 Ti    c    0.815319 *  0.065990 *  0.228710 *   2.43600    1.000000    
    165 Ti    c    0.732042 *  0.899409 *  0.230856 *   2.43600    1.000000    
    166 Ti    c    0.648617 *  0.066001 *  0.228680 *   2.43600    1.000000    
    167 Ti    c    0.565256 *  0.899408 *  0.230808 *   2.43600    1.000000    
    168 Ti    c    0.481889 *  0.065990 *  0.228685 *   2.43600    1.000000    
    169 Ti    c    0.398442 *  0.899400 *  0.230863 *   2.43600    1.000000    
    170 Ti    c    0.315197 *  0.065979 *  0.228719 *   2.43600    1.000000    
    171 Ti    c    0.231838 *  0.566092 *  0.230665 *   2.43600    1.000000    
    172 Ti    c    0.148491 *  0.732823 *  0.228525 *   2.43600    1.000000    
    173 Ti    c    0.065106 *  0.566093 *  0.230763 *   2.43600    1.000000    
    174 Ti    c    0.981865 *  0.732818 *  0.228626 *   2.43600    1.000000    
    175 Ti    c    0.898555 *  0.566071 *  0.230844 *   2.43600    1.000000    
    176 Ti    c    0.815297 *  0.732806 *  0.228672 *   2.43600    1.000000    
    177 Ti    c    0.732031 *  0.566077 *  0.230799 *   2.43600    1.000000    
    178 Ti    c    0.648685 *  0.732798 *  0.228621 *   2.43600    1.000000    
    179 Ti    c    0.565354 *  0.566084 *  0.230705 *   2.43600    1.000000    
    180 Ti    c    0.481977 *  0.732817 *  0.228524 *   2.43600    1.000000    
    181 H22   c    0.226858 *  0.745437 *  0.358003 *   0.12000    1.000000    
    182 H22   c    0.892732 *  0.197659 *  0.362469 *   0.12000    1.000000    
    183 O2    c    0.394637 *  0.729826 *  0.349542 *  -1.21800    1.000000    
    184 O2    c    0.231397 *  0.403057 *  0.350167 *  -1.21800    1.000000    
    185 O2    c    0.061892 *  0.400154 *  0.350081 *  -1.21800    1.000000    
    186 O3    c    0.892195 *  0.230521 *  0.356168 *  -0.33800    1.000000    
    187 O2    c    0.736249 *  0.401087 *  0.349874 *  -1.21800    1.000000    
    188 O2    c    0.565714 *  0.400462 *  0.350235 *  -1.21800    1.000000    
    189 O2    c    0.398462 *  0.400589 *  0.350153 *  -1.21800    1.000000    
    190 O2    c    0.231290 *  0.067899 *  0.349851 *  -1.21800    1.000000    
    191 O2    c    0.066149 *  0.068363 *  0.349925 *  -1.21800    1.000000    
    192 O2    c    0.898593 *  0.070466 *  0.350071 *  -1.21800    1.000000    
    193 O2    c    0.731973 *  0.066010 *  0.350114 *  -1.21800    1.000000    
    194 O2    c    0.565292 *  0.066440 *  0.350097 *  -1.21800    1.000000    
    195 O2    c    0.398578 *  0.067326 *  0.350096 *  -1.21800    1.000000    
    196 O3    c    0.231470 *  0.733224 *  0.349866 *  -0.33800    1.000000    
    197 O2    c    0.071307 *  0.729258 *  0.349321 *  -1.21800    1.000000    
    198 O2    c    0.898545 *  0.731126 *  0.350367 *  -1.21800    1.000000    
    199 O2    c    0.731755 *  0.733205 *  0.350244 *  -1.21800    1.000000    
    200 O2    c    0.565251 *  0.732481 *  0.350271 *  -1.21800    1.000000    
    201 O2    c    0.148320 *  0.173315 *  0.340400 *  -1.21800    1.000000    
    202 O2    c    0.982886 *  0.172920 *  0.340365 *  -1.21800    1.000000    
    203 O2    c    0.813118 *  0.172213 *  0.340300 *  -1.21800    1.000000    
    204 O2    c    0.648500 *  0.172727 *  0.340636 *  -1.21800    1.000000    
    205 O2    c    0.482328 *  0.172888 *  0.340661 *  -1.21800    1.000000    
    206 O2    c    0.315887 *  0.172996 *  0.340653 *  -1.21800    1.000000    
    207 O2    c    0.151271 *  0.831254 *  0.338679 *  -1.21800    1.000000    
    208 O2    c    0.980727 *  0.836078 *  0.340760 *  -1.21800    1.000000    
    209 O2    c    0.815181 *  0.838257 *  0.340809 *  -1.21800    1.000000    
    210 O2    c    0.648154 *  0.838602 *  0.340727 *  -1.21800    1.000000    
    211 O2    c    0.481216 *  0.837839 *  0.340853 *  -1.21800    1.000000    
    212 O2    c    0.317636 *  0.833636 *  0.339985 *  -1.21800    1.000000    
    213 O2    c    0.986618 *  0.502404 *  0.339238 *  -1.21800    1.000000    
    214 O2    c    0.481811 *  0.506003 *  0.340634 *  -1.21800    1.000000    
    215 O2    c    0.315860 *  0.506738 *  0.340600 *  -1.21800    1.000000    
    216 O2    c    0.147802 *  0.506663 *  0.340726 *  -1.21800    1.000000    
    217 O2    c    0.810275 *  0.501222 *  0.338947 *  -1.21800    1.000000    
    218 O2    c    0.648471 *  0.505237 *  0.340715 *  -1.21800    1.000000    
    219 O2    c    0.312810 *  0.629120 *  0.340553 *  -1.21800    1.000000    
    220 O2    c    0.148626 *  0.294382 *  0.340985 *  -1.21800    1.000000    
    221 O2    c    0.980156 *  0.296181 *  0.340787 *  -1.21800    1.000000    
    222 O2    c    0.815957 *  0.295869 *  0.340468 *  -1.21800    1.000000    
    223 O2    c    0.649099 *  0.294208 *  0.340989 *  -1.21800    1.000000    
    224 O2    c    0.481976 *  0.294178 *  0.340768 *  -1.21800    1.000000    
    225 O2    c    0.314705 *  0.294214 *  0.340790 *  -1.21800    1.000000    
    226 O2    c    0.979292 *  0.961366 *  0.340667 *  -1.21800    1.000000    
    227 O2    c    0.482139 *  0.959757 *  0.340695 *  -1.21800    1.000000    
    228 O2    c    0.318444 *  0.961205 *  0.340222 *  -1.21800    1.000000    
    229 O2    c    0.152518 *  0.629333 *  0.340298 *  -1.21800    1.000000    
    230 O2    c    0.983754 *  0.627217 *  0.340821 *  -1.21800    1.000000    
    231 O2    c    0.813135 *  0.626773 *  0.340646 *  -1.21800    1.000000    
    232 O2    c    0.647925 *  0.626875 *  0.340668 *  -1.21800    1.000000    
    233 O2    c    0.481558 *  0.627137 *  0.340726 *  -1.21800    1.000000    
    234 O2    c    0.149228 *  0.964202 *  0.338883 *  -1.21800    1.000000    
    235 O2    c    0.815582 *  0.959926 *  0.340811 *  -1.21800    1.000000    
    236 O2    c    0.648570 *  0.959860 *  0.340694 *  -1.21800    1.000000    
    237 O2    c    0.402383 *  0.731284 *  0.328855 *  -1.21800    1.000000    
    238 O2    c    0.231760 *  0.400726 *  0.329533 *  -1.21800    1.000000    
    239 O2    c    0.066949 *  0.397336 *  0.329322 *  -1.21800    1.000000    
    240 O2    c    0.899060 *  0.396868 *  0.329679 *  -1.21800    1.000000    
    241 O2    c    0.728962 *  0.396582 *  0.329096 *  -1.21800    1.000000    
    242 O2    c    0.565096 *  0.399653 *  0.329532 *  -1.21800    1.000000    
    243 O2    c    0.398331 *  0.399704 *  0.329494 *  -1.21800    1.000000    
    244 O2    c    0.233761 *  0.069461 *  0.329219 *  -1.21800    1.000000    
    245 O2    c    0.063974 *  0.068796 *  0.329233 *  -1.21800    1.000000    
    246 O2    c    0.897690 *  0.066305 *  0.329405 *  -1.21800    1.000000    
    247 O2    c    0.731368 *  0.065567 *  0.329433 *  -1.21800    1.000000    
    248 O2    c    0.565318 *  0.066130 *  0.329440 *  -1.21800    1.000000    
    249 O2    c    0.399746 *  0.066994 *  0.329391 *  -1.21800    1.000000    
    250 O2    c    0.233588 *  0.729430 *  0.329949 *  -1.21800    1.000000    
    251 O2    c    0.060933 *  0.728849 *  0.328674 *  -1.21800    1.000000    
    252 O2    c    0.897599 *  0.732796 *  0.329583 *  -1.21800    1.000000    
    253 O2    c    0.731175 *  0.732499 *  0.329514 *  -1.21800    1.000000    
    254 O2    c    0.565265 *  0.732726 *  0.329516 *  -1.21800    1.000000    
    255 O2    c    0.398120 *  0.567262 *  0.322907 *  -1.21800    1.000000    
    256 O2    c    0.232076 *  0.233751 *  0.322935 *  -1.21800    1.000000    
    257 O2    c    0.065363 *  0.234602 *  0.322954 *  -1.21800    1.000000    
    258 O2    c    0.898405 *  0.233083 *  0.323076 *  -1.21800    1.000000    
    259 O2    c    0.731215 *  0.233939 *  0.322923 *  -1.21800    1.000000    
    260 O2    c    0.565458 *  0.233647 *  0.322967 *  -1.21800    1.000000    
    261 O2    c    0.398689 *  0.233546 *  0.322963 *  -1.21800    1.000000    
    262 O2    c    0.235429 *  0.898878 *  0.323365 *  -1.21800    1.000000    
    263 O2    c    0.062601 *  0.898402 *  0.323688 *  -1.21800    1.000000    
    264 O2    c    0.896963 *  0.898776 *  0.323045 *  -1.21800    1.000000    
    265 O2    c    0.731607 *  0.899309 *  0.323000 *  -1.21800    1.000000    
    266 O2    c    0.565086 *  0.898997 *  0.322942 *  -1.21800    1.000000    
    267 O2    c    0.400533 *  0.898549 *  0.322881 *  -1.21800    1.000000    
    268 O2    c    0.232361 *  0.565777 *  0.322678 *  -1.21800    1.000000    
    269 O2    c    0.067859 *  0.568018 *  0.322812 *  -1.21800    1.000000    
    270 O2    c    0.898855 *  0.566771 *  0.323490 *  -1.21800    1.000000    
    271 O2    c    0.729365 *  0.567007 *  0.322765 *  -1.21800    1.000000    
    272 O2    c    0.564794 *  0.566191 *  0.322857 *  -1.21800    1.000000    
    273 O2    c    0.315375 *  0.667822 *  0.312543 *  -1.21800    1.000000    
    274 O2    c    0.315427 *  0.465277 *  0.312490 *  -1.21800    1.000000    
    275 O2    c    0.149220 *  0.334151 *  0.312377 *  -1.21800    1.000000    
    276 O2    c    0.148555 *  0.132140 *  0.312384 *  -1.21800    1.000000    
    277 O2    c    0.981714 *  0.334249 *  0.312493 *  -1.21800    1.000000    
    278 O2    c    0.981481 *  0.132031 *  0.312376 *  -1.21800    1.000000    
    279 O2    c    0.815260 *  0.334328 *  0.312594 *  -1.21800    1.000000    
    280 O2    c    0.814932 *  0.131790 *  0.312517 *  -1.21800    1.000000    
    281 O2    c    0.647742 *  0.333883 *  0.312231 *  -1.21800    1.000000    
    282 O2    c    0.648618 *  0.131830 *  0.312508 *  -1.21800    1.000000    
    283 O2    c    0.481834 *  0.334230 *  0.312538 *  -1.21800    1.000000    
    284 O2    c    0.482229 *  0.132056 *  0.312498 *  -1.21800    1.000000    
    285 O2    c    0.315274 *  0.334343 *  0.312550 *  -1.21800    1.000000    
    286 O2    c    0.315804 *  0.132257 *  0.312353 *  -1.21800    1.000000    
    287 O2    c    0.148884 *  0.000990 *  0.312684 *  -1.21800    1.000000    
    288 O2    c    0.148888 *  0.796280 *  0.313018 *  -1.21800    1.000000    
    289 O2    c    0.981751 *  0.000689 *  0.312522 *  -1.21800    1.000000    
    290 O2    c    0.981057 *  0.797783 *  0.312282 *  -1.21800    1.000000    
    291 O2    c    0.814913 *  0.000561 *  0.312484 *  -1.21800    1.000000    
    292 O2    c    0.814688 *  0.797918 *  0.312504 *  -1.21800    1.000000    
    293 O2    c    0.648344 *  0.000549 *  0.312500 *  -1.21800    1.000000    
    294 O2    c    0.648607 *  0.798193 *  0.312523 *  -1.21800    1.000000    
    295 O2    c    0.482065 *  0.000700 *  0.312434 *  -1.21800    1.000000    
    296 O2    c    0.482690 *  0.798156 *  0.312200 *  -1.21800    1.000000    
    297 O2    c    0.315876 *  0.000910 *  0.312454 *  -1.21800    1.000000    
    298 O2    c    0.315699 *  0.796647 *  0.312726 *  -1.21800    1.000000    
    299 O2    c    0.149560 *  0.668009 *  0.312492 *  -1.21800    1.000000    
    300 O2    c    0.148764 *  0.465150 *  0.312405 *  -1.21800    1.000000    
    301 O2    c    0.980904 *  0.666619 *  0.312137 *  -1.21800    1.000000    
    302 O2    c    0.982060 *  0.464220 *  0.312709 *  -1.21800    1.000000    
    303 O2    c    0.814907 *  0.666976 *  0.312603 *  -1.21800    1.000000    
    304 O2    c    0.815231 *  0.463770 *  0.312787 *  -1.21800    1.000000    
    305 O2    c    0.648136 *  0.667331 *  0.312386 *  -1.21800    1.000000    
    306 O2    c    0.648089 *  0.464918 *  0.312350 *  -1.21800    1.000000    
    307 O2    c    0.482593 *  0.666954 *  0.312185 *  -1.21800    1.000000    
    308 O2    c    0.481483 *  0.465201 *  0.312543 *  -1.21800    1.000000    
    309 O2    c    0.398622 *  0.566519 *  0.301457 *  -1.21800    1.000000    
    310 O2    c    0.232026 *  0.233093 *  0.301552 *  -1.21800    1.000000    
    311 O2    c    0.065021 *  0.233263 *  0.301591 *  -1.21800    1.000000    
    312 O2    c    0.898362 *  0.233441 *  0.301636 *  -1.21800    1.000000    
    313 O2    c    0.732176 *  0.233139 *  0.301572 *  -1.21800    1.000000    
    314 O2    c    0.565012 *  0.232693 *  0.301543 *  -1.21800    1.000000    
    315 O2    c    0.398711 *  0.233347 *  0.301566 *  -1.21800    1.000000    
    316 O2    c    0.230836 *  0.897990 *  0.302074 *  -1.21800    1.000000    
    317 O2    c    0.066578 *  0.898536 *  0.302181 *  -1.21800    1.000000    
    318 O2    c    0.899183 *  0.899554 *  0.301746 *  -1.21800    1.000000    
    319 O2    c    0.731933 *  0.899389 *  0.301601 *  -1.21800    1.000000    
    320 O2    c    0.565613 *  0.899529 *  0.301540 *  -1.21800    1.000000    
    321 O2    c    0.397944 *  0.898643 *  0.301622 *  -1.21800    1.000000    
    322 O2    c    0.232168 *  0.566891 *  0.301390 *  -1.21800    1.000000    
    323 O2    c    0.064413 *  0.565982 *  0.301577 *  -1.21800    1.000000    
    324 O2    c    0.898241 *  0.564446 *  0.301878 *  -1.21800    1.000000    
    325 O2    c    0.732936 *  0.565264 *  0.301598 *  -1.21800    1.000000    
    326 O2    c    0.565029 *  0.565745 *  0.301437 *  -1.21800    1.000000    
    327 O2    c    0.398224 *  0.732437 *  0.295521 *  -1.21800    1.000000    
    328 O2    c    0.232052 *  0.399828 *  0.295804 *  -1.21800    1.000000    
    329 O2    c    0.065061 *  0.399486 *  0.295751 *  -1.21800    1.000000    
    330 O2    c    0.898431 *  0.399496 *  0.295711 *  -1.21800    1.000000    
    331 O2    c    0.732157 *  0.399404 *  0.295663 *  -1.21800    1.000000    
    332 O2    c    0.565011 *  0.399721 *  0.295777 *  -1.21800    1.000000    
    333 O2    c    0.398561 *  0.399637 *  0.295816 *  -1.21800    1.000000    
    334 O2    c    0.232023 *  0.066272 *  0.295823 *  -1.21800    1.000000    
    335 O2    c    0.065326 *  0.066195 *  0.295842 *  -1.21800    1.000000    
    336 O2    c    0.898358 *  0.066250 *  0.295848 *  -1.21800    1.000000    
    337 O2    c    0.731742 *  0.066171 *  0.295836 *  -1.21800    1.000000    
    338 O2    c    0.565319 *  0.066262 *  0.295822 *  -1.21800    1.000000    
    339 O2    c    0.398867 *  0.066345 *  0.295816 *  -1.21800    1.000000    
    340 O2    c    0.232154 *  0.732648 *  0.295566 *  -1.21800    1.000000    
    341 O2    c    0.065981 *  0.732437 *  0.295564 *  -1.21800    1.000000    
    342 O2    c    0.898449 *  0.732442 *  0.295812 *  -1.21800    1.000000    
    343 O2    c    0.731709 *  0.732524 *  0.295839 *  -1.21800    1.000000    
    344 O2    c    0.565041 *  0.732738 *  0.295721 *  -1.21800    1.000000    
    345 O2    c    0.315305 *  0.501458 *  0.284965 *  -1.21800    1.000000    
    346 O2    c    0.315297 *  0.630955 *  0.284847 *  -1.21800    1.000000    
    347 O2    c    0.148581 *  0.168089 *  0.285029 *  -1.21800    1.000000    
    348 O2    c    0.148608 *  0.297703 *  0.285001 *  -1.21800    1.000000    
    349 O2    c    0.981820 *  0.168054 *  0.285050 *  -1.21800    1.000000    
    350 O2    c    0.981876 *  0.297681 *  0.284981 *  -1.21800    1.000000    
    351 O2    c    0.815226 *  0.168020 *  0.285031 *  -1.21800    1.000000    
    352 O2    c    0.815254 *  0.297671 *  0.284956 *  -1.21800    1.000000    
    353 O2    c    0.648593 *  0.168058 *  0.285027 *  -1.21800    1.000000    
    354 O2    c    0.648506 *  0.297611 *  0.284993 *  -1.21800    1.000000    
    355 O2    c    0.481877 *  0.168019 *  0.284984 *  -1.21800    1.000000    
    356 O2    c    0.481910 *  0.297693 *  0.284986 *  -1.21800    1.000000    
    357 O2    c    0.315361 *  0.168074 *  0.285008 *  -1.21800    1.000000    
    358 O2    c    0.315244 *  0.297728 *  0.285001 *  -1.21800    1.000000    
    359 O2    c    0.148668 *  0.834081 *  0.285054 *  -1.21800    1.000000    
    360 O2    c    0.148638 *  0.964261 *  0.285188 *  -1.21800    1.000000    
    361 O2    c    0.982293 *  0.834399 *  0.285166 *  -1.21800    1.000000    
    362 O2    c    0.982337 *  0.964123 *  0.285233 *  -1.21800    1.000000    
    363 O2    c    0.815342 *  0.834571 *  0.285114 *  -1.21800    1.000000    
    364 O2    c    0.815352 *  0.964163 *  0.285096 *  -1.21800    1.000000    
    365 O2    c    0.648608 *  0.834515 *  0.285005 *  -1.21800    1.000000    
    366 O2    c    0.648632 *  0.964223 *  0.285004 *  -1.21800    1.000000    
    367 O2    c    0.481828 *  0.834540 *  0.284987 *  -1.21800    1.000000    
    368 O2    c    0.481818 *  0.964070 *  0.285092 *  -1.21800    1.000000    
    369 O2    c    0.315005 *  0.834365 *  0.285072 *  -1.21800    1.000000    
    370 O2    c    0.314967 *  0.964041 *  0.285230 *  -1.21800    1.000000    
    371 O2    c    0.148528 *  0.501425 *  0.285035 *  -1.21800    1.000000    
    372 O2    c    0.148517 *  0.630773 *  0.284955 *  -1.21800    1.000000    
    373 O2    c    0.981799 *  0.501041 *  0.284985 *  -1.21800    1.000000    
    374 O2    c    0.981634 *  0.630786 *  0.285002 *  -1.21800    1.000000    
    375 O2    c    0.815372 *  0.500930 *  0.284934 *  -1.21800    1.000000    
    376 O2    c    0.815407 *  0.630760 *  0.285053 *  -1.21800    1.000000    
    377 O2    c    0.648644 *  0.501225 *  0.284986 *  -1.21800    1.000000    
    378 O2    c    0.648689 *  0.630647 *  0.285053 *  -1.21800    1.000000    
    379 O2    c    0.481777 *  0.501339 *  0.284928 *  -1.21800    1.000000    
    380 O2    c    0.481938 *  0.630915 *  0.284856 *  -1.21800    1.000000    
    381 O2    c    0.398864 *  0.732798 *  0.273985 *  -1.21800    1.000000    
    382 O2    c    0.231955 *  0.399699 *  0.274171 *  -1.21800    1.000000    
    383 O2    c    0.065466 *  0.399515 *  0.274136 *  -1.21800    1.000000    
    384 O2    c    0.898696 *  0.399200 *  0.274082 *  -1.21800    1.000000    
    385 O2    c    0.731645 *  0.399314 *  0.274086 *  -1.21800    1.000000    
    386 O2    c    0.565096 *  0.399506 *  0.274141 *  -1.21800    1.000000    
    387 O2    c    0.398509 *  0.399551 *  0.274168 *  -1.21800    1.000000    
    388 O2    c    0.232003 *  0.066176 *  0.274248 *  -1.21800    1.000000    
    389 O2    c    0.065212 *  0.066271 *  0.274260 *  -1.21800    1.000000    
    390 O2    c    0.898654 *  0.065995 *  0.274258 *  -1.21800    1.000000    
    391 O2    c    0.731961 *  0.066108 *  0.274228 *  -1.21800    1.000000    
    392 O2    c    0.565229 *  0.066018 *  0.274217 *  -1.21800    1.000000    
    393 O2    c    0.398543 *  0.065803 *  0.274231 *  -1.21800    1.000000    
    394 O2    c    0.231920 *  0.732295 *  0.273968 *  -1.21800    1.000000    
    395 O2    c    0.064839 *  0.732301 *  0.274050 *  -1.21800    1.000000    
    396 O2    c    0.898311 *  0.732873 *  0.274186 *  -1.21800    1.000000    
    397 O2    c    0.731987 *  0.732642 *  0.274213 *  -1.21800    1.000000    
    398 O2    c    0.565631 *  0.732627 *  0.274107 *  -1.21800    1.000000    
    399 O2    c    0.398507 *  0.566102 *  0.268318 *  -1.21800    1.000000    
    400 O2    c    0.231958 *  0.232862 *  0.268459 *  -1.21800    1.000000    
    401 O2    c    0.065262 *  0.232852 *  0.268474 *  -1.21800    1.000000    
    402 O2    c    0.898551 *  0.232805 *  0.268476 *  -1.21800    1.000000    
    403 O2    c    0.731844 *  0.232823 *  0.268450 *  -1.21800    1.000000    
    404 O2    c    0.565254 *  0.232820 *  0.268438 *  -1.21800    1.000000    
    405 O2    c    0.398604 *  0.232878 *  0.268448 *  -1.21800    1.000000    
    406 O2    c    0.232196 *  0.899277 *  0.268729 *  -1.21800    1.000000    
    407 O2    c    0.065221 *  0.899285 *  0.268783 *  -1.21800    1.000000    
    408 O2    c    0.898487 *  0.899318 *  0.268637 *  -1.21800    1.000000    
    409 O2    c    0.731843 *  0.899314 *  0.268506 *  -1.21800    1.000000    
    410 O2    c    0.565200 *  0.899335 *  0.268461 *  -1.21800    1.000000    
    411 O2    c    0.398685 *  0.899335 *  0.268531 *  -1.21800    1.000000    
    412 O2    c    0.231969 *  0.566067 *  0.268324 *  -1.21800    1.000000    
    413 O2    c    0.065475 *  0.566027 *  0.268441 *  -1.21800    1.000000    
    414 O2    c    0.898620 *  0.565988 *  0.268551 *  -1.21800    1.000000    
    415 O2    c    0.731725 *  0.566042 *  0.268475 *  -1.21800    1.000000    
    416 O2    c    0.565179 *  0.566037 *  0.268366 *  -1.21800    1.000000    
    417 O2    c    0.315316 *  0.667211 *  0.257367 *  -1.21800    1.000000    
    418 O2    c    0.315257 *  0.464976 *  0.257443 *  -1.21800    1.000000    
    419 O2    c    0.148651 *  0.333923 *  0.257496 *  -1.21800    1.000000    
    420 O2    c    0.148613 *  0.131642 *  0.257567 *  -1.21800    1.000000    
    421 O2    c    0.981979 *  0.333898 *  0.257478 *  -1.21800    1.000000    
    422 O2    c    0.981906 *  0.131640 *  0.257563 *  -1.21800    1.000000    
    423 O2    c    0.815204 *  0.333890 *  0.257470 *  -1.21800    1.000000    
    424 O2    c    0.815264 *  0.131613 *  0.257558 *  -1.21800    1.000000    
    425 O2    c    0.648480 *  0.333873 *  0.257460 *  -1.21800    1.000000    
    426 O2    c    0.648570 *  0.131600 *  0.257544 *  -1.21800    1.000000    
    427 O2    c    0.481881 *  0.333907 *  0.257486 *  -1.21800    1.000000    
    428 O2    c    0.481893 *  0.131586 *  0.257550 *  -1.21800    1.000000    
    429 O2    c    0.315253 *  0.333934 *  0.257502 *  -1.21800    1.000000    
    430 O2    c    0.315301 *  0.131619 *  0.257556 *  -1.21800    1.000000    
    431 O2    c    0.148630 *  0.000522 *  0.257677 *  -1.21800    1.000000    
    432 O2    c    0.148562 *  0.798103 *  0.257566 *  -1.21800    1.000000    
    433 O2    c    0.981978 *  0.000518 *  0.257653 *  -1.21800    1.000000    
    434 O2    c    0.981857 *  0.798209 *  0.257563 *  -1.21800    1.000000    
    435 O2    c    0.815266 *  0.000537 *  0.257593 *  -1.21800    1.000000    
    436 O2    c    0.815203 *  0.798259 *  0.257536 *  -1.21800    1.000000    
    437 O2    c    0.648568 *  0.000539 *  0.257550 *  -1.21800    1.000000    
    438 O2    c    0.648640 *  0.798239 *  0.257489 *  -1.21800    1.000000    
    439 O2    c    0.481899 *  0.000498 *  0.257550 *  -1.21800    1.000000    
    440 O2    c    0.482026 *  0.798207 *  0.257453 *  -1.21800    1.000000    
    441 O2    c    0.315235 *  0.000485 *  0.257605 *  -1.21800    1.000000    
    442 O2    c    0.315257 *  0.798138 *  0.257489 *  -1.21800    1.000000    
    443 O2    c    0.148548 *  0.667166 *  0.257407 *  -1.21800    1.000000    
    444 O2    c    0.148639 *  0.464960 *  0.257454 *  -1.21800    1.000000    
    445 O2    c    0.981769 *  0.667125 *  0.257484 *  -1.21800    1.000000    
    446 O2    c    0.981963 *  0.464889 *  0.257492 *  -1.21800    1.000000    
    447 O2    c    0.815229 *  0.667133 *  0.257529 *  -1.21800    1.000000    
    448 O2    c    0.815223 *  0.464842 *  0.257502 *  -1.21800    1.000000    
    449 O2    c    0.648646 *  0.667147 *  0.257474 *  -1.21800    1.000000    
    450 O2    c    0.648503 *  0.464913 *  0.257456 *  -1.21800    1.000000    
    451 O2    c    0.482011 *  0.667202 *  0.257403 *  -1.21800    1.000000    
    452 O2    c    0.481862 *  0.464959 *  0.257446 *  -1.21800    1.000000    
    453 O2    c    0.398652 *  0.566142 *  0.246943 *  -1.21800    1.000000    
    454 O2    c    0.231930 *  0.232777 *  0.247084 *  -1.21800    1.000000    
    455 O2    c    0.065264 *  0.232791 *  0.247095 *  -1.21800    1.000000    
    456 O2    c    0.898589 *  0.232804 *  0.247091 *  -1.21800    1.000000    
    457 O2    c    0.731927 *  0.232725 *  0.247071 *  -1.21800    1.000000    
    458 O2    c    0.565208 *  0.232687 *  0.247061 *  -1.21800    1.000000    
    459 O2    c    0.398571 *  0.232755 *  0.247070 *  -1.21800    1.000000    
    460 O2    c    0.231645 *  0.899219 *  0.247293 *  -1.21800    1.000000    
    461 O2    c    0.065424 *  0.899310 *  0.247342 *  -1.21800    1.000000    
    462 O2    c    0.898895 *  0.899433 *  0.247247 *  -1.21800    1.000000    
    463 O2    c    0.732089 *  0.899477 *  0.247137 *  -1.21800    1.000000    
    464 O2    c    0.565231 *  0.899389 *  0.247093 *  -1.21800    1.000000    
    465 O2    c    0.398310 *  0.899255 *  0.247153 *  -1.21800    1.000000    
    466 O2    c    0.231823 *  0.566152 *  0.246956 *  -1.21800    1.000000    
    467 O2    c    0.064994 *  0.566048 *  0.247050 *  -1.21800    1.000000    
    468 O2    c    0.898509 *  0.565905 *  0.247128 *  -1.21800    1.000000    
    469 O2    c    0.732117 *  0.565945 *  0.247082 *  -1.21800    1.000000    
    470 O2    c    0.565391 *  0.566073 *  0.246992 *  -1.21800    1.000000    
    471 O2    c    0.398538 *  0.732738 *  0.240437 *  -1.21800    1.000000    
    472 O2    c    0.231928 *  0.399356 *  0.240539 *  -1.21800    1.000000    
    473 O2    c    0.065247 *  0.399382 *  0.240529 *  -1.21800    1.000000    
    474 O2    c    0.898569 *  0.399413 *  0.240510 *  -1.21800    1.000000    
    475 O2    c    0.731920 *  0.399404 *  0.240508 *  -1.21800    1.000000    
    476 O2    c    0.565232 *  0.399387 *  0.240522 *  -1.21800    1.000000    
    477 O2    c    0.398581 *  0.399361 *  0.240536 *  -1.21800    1.000000    
    478 O2    c    0.231947 *  0.066059 *  0.240666 *  -1.21800    1.000000    
    479 O2    c    0.065287 *  0.066025 *  0.240680 *  -1.21800    1.000000    
    480 O2    c    0.898581 *  0.066043 *  0.240660 *  -1.21800    1.000000    
    481 O2    c    0.731895 *  0.066080 *  0.240626 *  -1.21800    1.000000    
    482 O2    c    0.565236 *  0.066102 *  0.240612 *  -1.21800    1.000000    
    483 O2    c    0.398601 *  0.066092 *  0.240632 *  -1.21800    1.000000    
    484 O2    c    0.231949 *  0.732775 *  0.240438 *  -1.21800    1.000000    
    485 O2    c    0.065352 *  0.732757 *  0.240520 *  -1.21800    1.000000    
    486 O2    c    0.898625 *  0.732704 *  0.240592 *  -1.21800    1.000000    
    487 O2    c    0.731888 *  0.732676 *  0.240587 *  -1.21800    1.000000    
    488 O2    c    0.565181 *  0.732698 *  0.240507 *  -1.21800    1.000000    
    489 O2    c    0.315232 *  0.505443 *  0.229289 *  -1.21800    1.000000    
    490 O2    c    0.148589 *  0.172023 *  0.229420 *  -1.21800    1.000000    
    491 O2    c    0.981920 *  0.172022 *  0.229422 *  -1.21800    1.000000    
    492 O2    c    0.815275 *  0.172018 *  0.229394 *  -1.21800    1.000000    
    493 O2    c    0.648583 *  0.172017 *  0.229369 *  -1.21800    1.000000    
    494 O2    c    0.481889 *  0.172012 *  0.229365 *  -1.21800    1.000000    
    495 O2    c    0.315254 *  0.172017 *  0.229392 *  -1.21800    1.000000    
    496 O2    c    0.148538 *  0.838686 *  0.229454 *  -1.21800    1.000000    
    497 O2    c    0.982078 *  0.838718 *  0.229499 *  -1.21800    1.000000    
    498 O2    c    0.815413 *  0.838759 *  0.229467 *  -1.21800    1.000000    
    499 O2    c    0.648644 *  0.838766 *  0.229394 *  -1.21800    1.000000    
    500 O2    c    0.481828 *  0.838759 *  0.229357 *  -1.21800    1.000000    
    501 O2    c    0.315058 *  0.838723 *  0.229389 *  -1.21800    1.000000    
    502 O2    c    0.148457 *  0.505432 *  0.229317 *  -1.21800    1.000000    
    503 O2    c    0.981814 *  0.505382 *  0.229338 *  -1.21800    1.000000    
    504 O2    c    0.815297 *  0.505368 *  0.229336 *  -1.21800    1.000000    
    505 O2    c    0.648704 *  0.505406 *  0.229316 *  -1.21800    1.000000    
    506 O2    c    0.481993 *  0.505430 *  0.229287 *  -1.21800    1.000000    
    507 O2    c    0.315246 *  0.626748 *  0.229220 *  -1.21800    1.000000    
    508 O2    c    0.148590 *  0.293363 *  0.229346 *  -1.21800    1.000000    
    509 O2    c    0.981943 *  0.293359 *  0.229346 *  -1.21800    1.000000    
    510 O2    c    0.815259 *  0.293351 *  0.229339 *  -1.21800    1.000000    
    511 O2    c    0.648577 *  0.293344 *  0.229337 *  -1.21800    1.000000    
    512 O2    c    0.481901 *  0.293353 *  0.229335 *  -1.21800    1.000000    
    513 O2    c    0.315228 *  0.293362 *  0.229340 *  -1.21800    1.000000    
    514 O2    c    0.148537 *  0.960086 *  0.229562 *  -1.21800    1.000000    
    515 O2    c    0.982070 *  0.960078 *  0.229546 *  -1.21800    1.000000    
    516 O2    c    0.815423 *  0.960058 *  0.229469 *  -1.21800    1.000000    
    517 O2    c    0.648645 *  0.960047 *  0.229414 *  -1.21800    1.000000    
    518 O2    c    0.481822 *  0.960027 *  0.229437 *  -1.21800    1.000000    
    519 O2    c    0.315063 *  0.960044 *  0.229513 *  -1.21800    1.000000    
    520 O2    c    0.148461 *  0.626743 *  0.229284 *  -1.21800    1.000000    
    521 O2    c    0.981796 *  0.626766 *  0.229367 *  -1.21800    1.000000    
    522 O2    c    0.815306 *  0.626767 *  0.229388 *  -1.21800    1.000000    
    523 O2    c    0.648709 *  0.626749 *  0.229330 *  -1.21800    1.000000    
    524 O2    c    0.481988 *  0.626755 *  0.229242 *  -1.21800    1.000000    
    525 O2    c    0.398670 *  0.732921 *  0.219787 *  -1.21800    1.000000    
    526 O2    c    0.231908 *  0.399520 *  0.219880 *  -1.21800    1.000000    
    527 O2    c    0.065278 *  0.399397 *  0.219867 *  -1.21800    1.000000    
    528 O2    c    0.898610 *  0.399229 *  0.219850 *  -1.21800    1.000000    
    529 O2    c    0.731901 *  0.399278 *  0.219850 *  -1.21800    1.000000    
    530 O2    c    0.565231 *  0.399381 *  0.219865 *  -1.21800    1.000000    
    531 O2    c    0.398561 *  0.399450 *  0.219878 *  -1.21800    1.000000    
    532 O2    c    0.231839 *  0.065957 *  0.220006 *  -1.21800    1.000000    
    533 O2    c    0.065268 *  0.066053 *  0.220017 *  -1.21800    1.000000    
    534 O2    c    0.898700 *  0.065955 *  0.220000 *  -1.21800    1.000000    
    535 O2    c    0.732016 *  0.065928 *  0.219971 *  -1.21800    1.000000    
    536 O2    c    0.565236 *  0.065852 *  0.219960 *  -1.21800    1.000000    
    537 O2    c    0.398480 *  0.065776 *  0.219978 *  -1.21800    1.000000    
    538 O2    c    0.231772 *  0.732690 *  0.219787 *  -1.21800    1.000000    
    539 O2    c    0.065011 *  0.732712 *  0.219858 *  -1.21800    1.000000    
    540 O2    c    0.898509 *  0.732983 *  0.219927 *  -1.21800    1.000000    
    541 O2    c    0.732078 *  0.732954 *  0.219925 *  -1.21800    1.000000    
    542 O2    c    0.565489 *  0.732919 *  0.219855 *  -1.21800    1.000000    
    543 O177  c    0.145046 *  0.897784 *  0.422968 *  -1.08000    1.000000    
    544 O177  c    0.267806 *  0.897784 *  0.422968 *  -1.08000    1.000000    
    545 O176  c    0.241596 *  0.897784 *  0.358890 *  -1.08000    1.000000    
    546 O176  c    0.118836 *  0.897784 *  0.358890 *  -1.08000    1.000000    
    547 O171  c    0.217822 *  0.897784 *  0.450828 *  -2.00000    1.000000    
    548 O171  c    0.717822 *  0.397784 *  0.450828 *  -2.00000    1.000000    
    549 O170  c    0.306419 *  0.750814 *  0.458181 *  -1.08000    1.000000    
    550 O170  c    0.067844 *  0.983374 *  0.443475 *  -1.08000    1.000000    
    551 O170  c    0.361784 *  0.812194 *  0.443475 *  -1.08000    1.000000    
    552 O170  c    0.135239 *  0.044754 *  0.458181 *  -1.08000    1.000000    
    553 O170  c    0.361784 *  0.983374 *  0.443475 *  -1.08000    1.000000    
    554 O170  c    0.067844 *  0.812194 *  0.443475 *  -1.08000    1.000000    
    555 O170  c    0.306419 *  0.044754 *  0.458181 *  -1.08000    1.000000    
    556 O170  c    0.135239 *  0.750814 *  0.458181 *  -1.08000    1.000000    
    557 O170  c    0.229217 *  0.959164 *  0.478688 *  -1.08000    1.000000    
    558 O170  c    0.694047 *  0.397784 *  0.542766 *  -1.08000    1.000000    
    559 O170  c    0.229217 *  0.836404 *  0.478688 *  -1.08000    1.000000    
    560 O170  c    0.816807 *  0.397784 *  0.542766 *  -1.08000    1.000000    
    561 O170  c    0.790597 *  0.397784 *  0.478688 *  -1.08000    1.000000    
    562 O170  c    0.255427 *  0.959164 *  0.542766 *  -1.08000    1.000000    
    563 O170  c    0.667837 *  0.397784 *  0.478688 *  -1.08000    1.000000    
    564 O170  c    0.255427 *  0.836404 *  0.542766 *  -1.08000    1.000000    
    565 O170  c    0.573859 *  0.312194 *  0.458181 *  -1.08000    1.000000    
    566 O170  c    0.800404 *  0.544754 *  0.443475 *  -1.08000    1.000000    
    567 O170  c    0.629224 *  0.250814 *  0.443475 *  -1.08000    1.000000    
    568 O170  c    0.867799 *  0.483374 *  0.458181 *  -1.08000    1.000000    
    569 O170  c    0.800404 *  0.250814 *  0.443475 *  -1.08000    1.000000    
    570 O170  c    0.629224 *  0.544754 *  0.443475 *  -1.08000    1.000000    
    571 O170  c    0.867799 *  0.312194 *  0.458181 *  -1.08000    1.000000    
    572 O170  c    0.573859 *  0.483374 *  0.458181 *  -1.08000    1.000000    
    573 O171  c    0.766823 *  0.397784 *  0.570627 *  -2.00000    1.000000    
    574 O171  c    0.266823 *  0.897784 *  0.570627 *  -2.00000    1.000000    
    575 O170  c    0.855421 *  0.250814 *  0.577980 *  -1.08000    1.000000    
    576 O170  c    0.616845 *  0.483374 *  0.563273 *  -1.08000    1.000000    
    577 O170  c    0.910785 *  0.312194 *  0.563273 *  -1.08000    1.000000    
    578 O170  c    0.684241 *  0.544754 *  0.577980 *  -1.08000    1.000000    
    579 O170  c    0.910785 *  0.483374 *  0.563273 *  -1.08000    1.000000    
    580 O170  c    0.616845 *  0.312194 *  0.563273 *  -1.08000    1.000000    
    581 O170  c    0.855421 *  0.544754 *  0.577980 *  -1.08000    1.000000    
    582 O170  c    0.684241 *  0.250814 *  0.577980 *  -1.08000    1.000000    
    583 O170  c    0.778219 *  0.459164 *  0.598487 *  -1.08000    1.000000    
    584 O170  c    0.243049 *  0.897784 *  0.662565 *  -1.08000    1.000000    
    585 O170  c    0.778219 *  0.336404 *  0.598487 *  -1.08000    1.000000    
    586 O170  c    0.365809 *  0.897784 *  0.662565 *  -1.08000    1.000000    
    587 O170  c    0.339599 *  0.897784 *  0.598487 *  -1.08000    1.000000    
    588 O170  c    0.804429 *  0.459164 *  0.662565 *  -1.08000    1.000000    
    589 O170  c    0.216839 *  0.897784 *  0.598487 *  -1.08000    1.000000    
    590 O170  c    0.804429 *  0.336404 *  0.662565 *  -1.08000    1.000000    
    591 O170  c    0.122861 *  0.812194 *  0.577980 *  -1.08000    1.000000    
    592 O170  c    0.349405 *  0.044754 *  0.563273 *  -1.08000    1.000000    
    593 O170  c    0.178225 *  0.750814 *  0.563273 *  -1.08000    1.000000    
    594 O170  c    0.416801 *  0.983374 *  0.577980 *  -1.08000    1.000000    
    595 O170  c    0.349405 *  0.750814 *  0.563273 *  -1.08000    1.000000    
    596 O170  c    0.178225 *  0.044754 *  0.563273 *  -1.08000    1.000000    
    597 O170  c    0.416801 *  0.812194 *  0.577980 *  -1.08000    1.000000    
    598 O170  c    0.122861 *  0.983374 *  0.577980 *  -1.08000    1.000000    
    599 O171  c    0.315824 *  0.897784 *  0.690425 *  -2.00000    1.000000    
    600 O171  c    0.815824 *  0.397784 *  0.690425 *  -2.00000    1.000000    
    601 O170  c    0.404422 *  0.750814 *  0.697778 *  -1.08000    1.000000    
    602 O170  c    0.165847 *  0.983374 *  0.683072 *  -1.08000    1.000000    
    603 O170  c    0.459787 *  0.812194 *  0.683072 *  -1.08000    1.000000    
    604 O170  c    0.233242 *  0.044754 *  0.697778 *  -1.08000    1.000000    
    605 O170  c    0.459787 *  0.983374 *  0.683072 *  -1.08000    1.000000    
    606 O170  c    0.165847 *  0.812194 *  0.683072 *  -1.08000    1.000000    
    607 O170  c    0.404422 *  0.044754 *  0.697778 *  -1.08000    1.000000    
    608 O170  c    0.233242 *  0.750814 *  0.697778 *  -1.08000    1.000000    
    609 O170  c    0.327220 *  0.959164 *  0.718285 *  -1.08000    1.000000    
    610 O173  c    0.792050 *  0.397784 *  0.782363 *  -0.69000    1.000000    
    611 O170  c    0.327220 *  0.836404 *  0.718285 *  -1.08000    1.000000    
    612 O172  c    0.914810 *  0.397784 *  0.782363 *  -0.69000    1.000000    
    613 H21   c    0.914810 *  0.397784 *  0.791069 *   0.22000    1.000000    
    614 O170  c    0.888600 *  0.397784 *  0.718285 *  -1.08000    1.000000    
    615 O173  c    0.353430 *  0.959164 *  0.782363 *  -0.69000    1.000000    
    616 O170  c    0.765840 *  0.397784 *  0.718285 *  -1.08000    1.000000    
    617 O172  c    0.353430 *  0.836404 *  0.782363 *  -0.69000    1.000000    
    618 H21   c    0.353430 *  0.836404 *  0.791069 *   0.22000    1.000000    
    619 O170  c    0.671862 *  0.312194 *  0.697778 *  -1.08000    1.000000    
    620 O170  c    0.898407 *  0.544754 *  0.683072 *  -1.08000    1.000000    
    621 O170  c    0.727227 *  0.250814 *  0.683072 *  -1.08000    1.000000    
    622 O170  c    0.965802 *  0.483374 *  0.697778 *  -1.08000    1.000000    
    623 O170  c    0.898407 *  0.250814 *  0.683072 *  -1.08000    1.000000    
    624 O170  c    0.727227 *  0.544754 *  0.683072 *  -1.08000    1.000000    
    625 O170  c    0.965802 *  0.312194 *  0.697778 *  -1.08000    1.000000    
    626 O170  c    0.671862 *  0.483374 *  0.697778 *  -1.08000    1.000000    
    627 C912  c    0.130024 *  0.897784 *  0.397343 *  -0.07025    1.000000    
    628 C912  c    0.261864 *  0.897784 *  0.397343 *  -0.07025    1.000000    
    629 C912  c    0.256617 *  0.897784 *  0.384515 *  -0.07025    1.000000    
    630 C912  c    0.124777 *  0.897784 *  0.384515 *  -0.07025    1.000000    
    631 C917  c    0.204252 *  0.897784 *  0.417654 *   1.07050    1.000000    
    632 C916  c    0.182390 *  0.897784 *  0.364204 *   1.07050    1.000000    
    633 C902  c    0.198587 *  0.897784 *  0.403802 *   0.00500    1.000000    
    634 C902  c    0.188055 *  0.897784 *  0.378055 *   0.00500    1.000000    
    635 C912  c    0.411322 *  0.641594 *  0.458725 *  -0.07025    1.000000    
    636 C912  c    0.958401 *  0.088054 *  0.442931 *  -0.07025    1.000000    
    637 C912  c    0.470781 *  0.707514 *  0.442931 *  -0.07025    1.000000    
    638 C912  c    0.030782 *  0.153974 *  0.458725 *  -0.07025    1.000000    
    639 C912  c    0.470781 *  0.088054 *  0.442931 *  -0.07025    1.000000    
    640 C912  c    0.958401 *  0.707514 *  0.442931 *  -0.07025    1.000000    
    641 C912  c    0.411322 *  0.153974 *  0.458725 *  -0.07025    1.000000    
    642 C912  c    0.030782 *  0.641594 *  0.458725 *  -0.07025    1.000000    
    643 C912  c    0.239699 *  0.963704 *  0.504313 *  -0.07025    1.000000    
    644 C912  c    0.679026 *  0.397784 *  0.517141 *  -0.07025    1.000000    
    645 C912  c    0.239699 *  0.831864 *  0.504313 *  -0.07025    1.000000    
    646 C912  c    0.810866 *  0.397784 *  0.517141 *  -0.07025    1.000000    
    647 C912  c    0.805619 *  0.397784 *  0.504313 *  -0.07025    1.000000    
    648 C912  c    0.244946 *  0.963704 *  0.517141 *  -0.07025    1.000000    
    649 C912  c    0.673779 *  0.397784 *  0.504313 *  -0.07025    1.000000    
    650 C912  c    0.244946 *  0.831864 *  0.517141 *  -0.07025    1.000000    
    651 C912  c    0.464862 *  0.207514 *  0.458725 *  -0.07025    1.000000    
    652 C912  c    0.904862 *  0.653974 *  0.442931 *  -0.07025    1.000000    
    653 C912  c    0.524321 *  0.141594 *  0.442931 *  -0.07025    1.000000    
    654 C912  c    0.977242 *  0.588054 *  0.458725 *  -0.07025    1.000000    
    655 C912  c    0.904862 *  0.141594 *  0.442931 *  -0.07025    1.000000    
    656 C912  c    0.524321 *  0.653974 *  0.442931 *  -0.07025    1.000000    
    657 C912  c    0.977242 *  0.207514 *  0.458725 *  -0.07025    1.000000    
    658 C912  c    0.464862 *  0.588054 *  0.458725 *  -0.07025    1.000000    
    659 C913  c    0.356282 *  0.759324 *  0.450828 *   1.07050    1.000000    
    660 C913  c    0.079362 *  0.036244 *  0.450828 *   1.07050    1.000000    
    661 C913  c    0.356282 *  0.036244 *  0.450828 *   1.07050    1.000000    
    662 C913  c    0.079362 *  0.759324 *  0.450828 *   1.07050    1.000000    
    663 C913  c    0.231391 *  0.897784 *  0.484003 *   1.07050    1.000000    
    664 C913  c    0.753253 *  0.397784 *  0.537452 *   1.07050    1.000000    
    665 C913  c    0.731391 *  0.397784 *  0.484003 *   1.07050    1.000000    
    666 C913  c    0.253253 *  0.897784 *  0.537452 *   1.07050    1.000000    
    667 C913  c    0.579362 *  0.259324 *  0.450828 *   1.07050    1.000000    
    668 C913  c    0.856282 *  0.536244 *  0.450828 *   1.07050    1.000000    
    669 C913  c    0.856282 *  0.259324 *  0.450828 *   1.07050    1.000000    
    670 C913  c    0.579362 *  0.536244 *  0.450828 *   1.07050    1.000000    
    671 C902  c    0.414092 *  0.701514 *  0.450828 *   0.00500    1.000000    
    672 C902  c    0.021552 *  0.094054 *  0.450828 *   0.00500    1.000000    
    673 C902  c    0.414092 *  0.094054 *  0.450828 *   0.00500    1.000000    
    674 C902  c    0.021552 *  0.701514 *  0.450828 *   0.00500    1.000000    
    675 C902  c    0.237057 *  0.897784 *  0.497854 *   0.00500    1.000000    
    676 C902  c    0.747588 *  0.397784 *  0.523601 *   0.00500    1.000000    
    677 C902  c    0.737057 *  0.397784 *  0.497854 *   0.00500    1.000000    
    678 C902  c    0.247588 *  0.897784 *  0.523601 *   0.00500    1.000000    
    679 C902  c    0.521552 *  0.201514 *  0.450828 *   0.00500    1.000000    
    680 C902  c    0.914092 *  0.594054 *  0.450828 *   0.00500    1.000000    
    681 C902  c    0.914092 *  0.201514 *  0.450828 *   0.00500    1.000000    
    682 C902  c    0.521552 *  0.594054 *  0.450828 *   0.00500    1.000000    
    683 C912  c    0.960323 *  0.141594 *  0.578524 *  -0.07025    1.000000    
    684 C912  c    0.507403 *  0.588054 *  0.562729 *  -0.07025    1.000000    
    685 C912  c    0.019783 *  0.207514 *  0.562729 *  -0.07025    1.000000    
    686 C912  c    0.579783 *  0.653974 *  0.578524 *  -0.07025    1.000000    
    687 C912  c    0.019783 *  0.588054 *  0.562729 *  -0.07025    1.000000    
    688 C912  c    0.507403 *  0.207514 *  0.562729 *  -0.07025    1.000000    
    689 C912  c    0.960323 *  0.653974 *  0.578524 *  -0.07025    1.000000    
    690 C912  c    0.579783 *  0.141594 *  0.578524 *  -0.07025    1.000000    
    691 C912  c    0.788700 *  0.463704 *  0.624112 *  -0.07025    1.000000    
    692 C912  c    0.228027 *  0.897784 *  0.636940 *  -0.07025    1.000000    
    693 C912  c    0.788700 *  0.331864 *  0.624112 *  -0.07025    1.000000    
    694 C912  c    0.359867 *  0.897784 *  0.636940 *  -0.07025    1.000000    
    695 C912  c    0.354620 *  0.897784 *  0.624112 *  -0.07025    1.000000    
    696 C912  c    0.793947 *  0.463704 *  0.636940 *  -0.07025    1.000000    
    697 C912  c    0.222780 *  0.897784 *  0.624112 *  -0.07025    1.000000    
    698 C912  c    0.793947 *  0.331864 *  0.636940 *  -0.07025    1.000000    
    699 C912  c    0.013863 *  0.707514 *  0.578524 *  -0.07025    1.000000    
    700 C912  c    0.453863 *  0.153974 *  0.562729 *  -0.07025    1.000000    
    701 C912  c    0.073323 *  0.641594 *  0.562729 *  -0.07025    1.000000    
    702 C912  c    0.526243 *  0.088054 *  0.578524 *  -0.07025    1.000000    
    703 C912  c    0.453863 *  0.641594 *  0.562729 *  -0.07025    1.000000    
    704 C912  c    0.073323 *  0.153974 *  0.562729 *  -0.07025    1.000000    
    705 C912  c    0.526243 *  0.707514 *  0.578524 *  -0.07025    1.000000    
    706 C912  c    0.013863 *  0.088054 *  0.578524 *  -0.07025    1.000000    
    707 C913  c    0.905283 *  0.259324 *  0.570627 *   1.07050    1.000000    
    708 C913  c    0.628363 *  0.536244 *  0.570627 *   1.07050    1.000000    
    709 C913  c    0.905283 *  0.536244 *  0.570627 *   1.07050    1.000000    
    710 C913  c    0.628363 *  0.259324 *  0.570627 *   1.07050    1.000000    
    711 C913  c    0.780392 *  0.397784 *  0.603801 *   1.07050    1.000000    
    712 C913  c    0.302255 *  0.897784 *  0.657250 *   1.07050    1.000000    
    713 C913  c    0.280392 *  0.897784 *  0.603801 *   1.07050    1.000000    
    714 C913  c    0.802255 *  0.397784 *  0.657250 *   1.07050    1.000000    
    715 C913  c    0.128363 *  0.759324 *  0.570627 *   1.07050    1.000000    
    716 C913  c    0.405283 *  0.036244 *  0.570627 *   1.07050    1.000000    
    717 C913  c    0.405283 *  0.759324 *  0.570627 *   1.07050    1.000000    
    718 C913  c    0.128363 *  0.036244 *  0.570627 *   1.07050    1.000000    
    719 C902  c    0.963093 *  0.201514 *  0.570627 *   0.00500    1.000000    
    720 C902  c    0.570553 *  0.594054 *  0.570627 *   0.00500    1.000000    
    721 C902  c    0.963093 *  0.594054 *  0.570627 *   0.00500    1.000000    
    722 C902  c    0.570553 *  0.201514 *  0.570627 *   0.00500    1.000000    
    723 C902  c    0.786058 *  0.397784 *  0.617652 *   0.00500    1.000000    
    724 C902  c    0.296589 *  0.897784 *  0.643399 *   0.00500    1.000000    
    725 C902  c    0.286058 *  0.897784 *  0.617652 *   0.00500    1.000000    
    726 C902  c    0.796589 *  0.397784 *  0.643399 *   0.00500    1.000000    
    727 C902  c    0.070553 *  0.701514 *  0.570627 *   0.00500    1.000000    
    728 C902  c    0.463093 *  0.094054 *  0.570627 *   0.00500    1.000000    
    729 C902  c    0.463093 *  0.701514 *  0.570627 *   0.00500    1.000000    
    730 C902  c    0.070553 *  0.094054 *  0.570627 *   0.00500    1.000000    
    731 C912  c    0.509324 *  0.641594 *  0.698322 *  -0.07025    1.000000    
    732 C912  c    0.056404 *  0.088054 *  0.682528 *  -0.07025    1.000000    
    733 C912  c    0.568784 *  0.707514 *  0.682528 *  -0.07025    1.000000    
    734 C912  c    0.128784 *  0.153974 *  0.698322 *  -0.07025    1.000000    
    735 C912  c    0.568784 *  0.088054 *  0.682528 *  -0.07025    1.000000    
    736 C912  c    0.056404 *  0.707514 *  0.682528 *  -0.07025    1.000000    
    737 C912  c    0.509324 *  0.153974 *  0.698322 *  -0.07025    1.000000    
    738 C912  c    0.128784 *  0.641594 *  0.698322 *  -0.07025    1.000000    
    739 C912  c    0.337701 *  0.963704 *  0.743910 *  -0.07025    1.000000    
    740 C912  c    0.777028 *  0.397784 *  0.756738 *  -0.07025    1.000000    
    741 C912  c    0.337701 *  0.831864 *  0.743910 *  -0.07025    1.000000    
    742 C912  c    0.908869 *  0.397784 *  0.756738 *  -0.07025    1.000000    
    743 C912  c    0.903621 *  0.397784 *  0.743910 *  -0.07025    1.000000    
    744 C912  c    0.342948 *  0.963704 *  0.756738 *  -0.07025    1.000000    
    745 C912  c    0.771781 *  0.397784 *  0.743910 *  -0.07025    1.000000    
    746 C912  c    0.342948 *  0.831864 *  0.756738 *  -0.07025    1.000000    
    747 C912  c    0.562864 *  0.207514 *  0.698322 *  -0.07025    1.000000    
    748 C912  c    0.002864 *  0.653974 *  0.682528 *  -0.07025    1.000000    
    749 C912  c    0.622324 *  0.141594 *  0.682528 *  -0.07025    1.000000    
    750 C912  c    0.075244 *  0.588054 *  0.698322 *  -0.07025    1.000000    
    751 C912  c    0.002864 *  0.141594 *  0.682528 *  -0.07025    1.000000    
    752 C912  c    0.622324 *  0.653974 *  0.682528 *  -0.07025    1.000000    
    753 C912  c    0.075244 *  0.207514 *  0.698322 *  -0.07025    1.000000    
    754 C912  c    0.562864 *  0.588054 *  0.698322 *  -0.07025    1.000000    
    755 C913  c    0.454284 *  0.759324 *  0.690425 *   1.07050    1.000000    
    756 C913  c    0.177364 *  0.036244 *  0.690425 *   1.07050    1.000000    
    757 C913  c    0.454284 *  0.036244 *  0.690425 *   1.07050    1.000000    
    758 C913  c    0.177364 *  0.759324 *  0.690425 *   1.07050    1.000000    
    759 C913  c    0.329394 *  0.897784 *  0.723600 *   1.07050    1.000000    
    760 C914  c    0.851256 *  0.397784 *  0.777049 *   1.07050    1.000000    
    761 C913  c    0.829394 *  0.397784 *  0.723600 *   1.07050    1.000000    
    762 C914  c    0.351256 *  0.897784 *  0.777049 *   1.07050    1.000000    
    763 C913  c    0.677364 *  0.259324 *  0.690425 *   1.07050    1.000000    
    764 C913  c    0.954284 *  0.536244 *  0.690425 *   1.07050    1.000000    
    765 C913  c    0.954284 *  0.259324 *  0.690425 *   1.07050    1.000000    
    766 C913  c    0.677364 *  0.536244 *  0.690425 *   1.07050    1.000000    
    767 C902  c    0.512094 *  0.701514 *  0.690425 *   0.00500    1.000000    
    768 C902  c    0.119554 *  0.094054 *  0.690425 *   0.00500    1.000000    
    769 C902  c    0.512094 *  0.094054 *  0.690425 *   0.00500    1.000000    
    770 C902  c    0.119554 *  0.701514 *  0.690425 *   0.00500    1.000000    
    771 C902  c    0.335059 *  0.897784 *  0.737451 *   0.00500    1.000000    
    772 C902  c    0.845591 *  0.397784 *  0.763198 *   0.00500    1.000000    
    773 C902  c    0.835059 *  0.397784 *  0.737451 *   0.00500    1.000000    
    774 C902  c    0.345591 *  0.897784 *  0.763198 *   0.00500    1.000000    
    775 C902  c    0.619554 *  0.201514 *  0.690425 *   0.00500    1.000000    
    776 C902  c    0.012094 *  0.594054 *  0.690425 *   0.00500    1.000000    
    777 C902  c    0.012094 *  0.201514 *  0.690425 *   0.00500    1.000000    
    778 C902  c    0.619554 *  0.594054 *  0.690425 *   0.00500    1.000000    
    779 H915  c    0.086941 *  0.897784 *  0.401735 *   0.11250    1.000000    
    780 H915  c    0.308541 *  0.897784 *  0.401735 *   0.11250    1.000000    
    781 H915  c    0.299701 *  0.897784 *  0.380123 *   0.11250    1.000000    
    782 H915  c    0.078101 *  0.897784 *  0.380123 *   0.11250    1.000000    
    783 H915  c    0.372751 *  0.637484 *  0.464102 *   0.11250    1.000000    
    784 H915  c    0.952092 *  0.047284 *  0.437554 *   0.11250    1.000000    
    785 H915  c    0.472692 *  0.748284 *  0.437554 *   0.11250    1.000000    
    786 H915  c    0.073751 *  0.158084 *  0.464102 *   0.11250    1.000000    
    787 H915  c    0.472692 *  0.047284 *  0.437554 *   0.11250    1.000000    
    788 H915  c    0.952092 *  0.748284 *  0.437554 *   0.11250    1.000000    
    789 H915  c    0.372751 *  0.158084 *  0.464102 *   0.11250    1.000000    
    790 H915  c    0.073751 *  0.637484 *  0.464102 *   0.11250    1.000000    
    791 H915  c    0.237902 *  0.008584 *  0.499922 *   0.11250    1.000000    
    792 H915  c    0.635942 *  0.397784 *  0.521533 *   0.11250    1.000000    
    793 H915  c    0.237902 *  0.786984 *  0.499922 *   0.11250    1.000000    
    794 H915  c    0.857542 *  0.397784 *  0.521533 *   0.11250    1.000000    
    795 H915  c    0.848702 *  0.397784 *  0.499922 *   0.11250    1.000000    
    796 H915  c    0.246742 *  0.008584 *  0.521533 *   0.11250    1.000000    
    797 H915  c    0.627102 *  0.397784 *  0.499922 *   0.11250    1.000000    
    798 H915  c    0.246742 *  0.786984 *  0.521533 *   0.11250    1.000000    
    799 H915  c    0.462951 *  0.248284 *  0.464102 *   0.11250    1.000000    
    800 H915  c    0.861892 *  0.658084 *  0.437554 *   0.11250    1.000000    
    801 H915  c    0.562892 *  0.137484 *  0.437554 *   0.11250    1.000000    
    802 H915  c    0.983551 *  0.547284 *  0.464102 *   0.11250    1.000000    
    803 H915  c    0.861892 *  0.137484 *  0.437554 *   0.11250    1.000000    
    804 H915  c    0.562892 *  0.658084 *  0.437554 *   0.11250    1.000000    
    805 H915  c    0.983551 *  0.248284 *  0.464102 *   0.11250    1.000000    
    806 H915  c    0.462951 *  0.547284 *  0.464102 *   0.11250    1.000000    
    807 H915  c    0.921752 *  0.137484 *  0.583900 *   0.11250    1.000000    
    808 H915  c    0.501094 *  0.547284 *  0.557353 *   0.11250    1.000000    
    809 H915  c    0.021694 *  0.248284 *  0.557353 *   0.11250    1.000000    
    810 H915  c    0.622752 *  0.658084 *  0.583900 *   0.11250    1.000000    
    811 H915  c    0.021694 *  0.547284 *  0.557353 *   0.11250    1.000000    
    812 H915  c    0.501094 *  0.248284 *  0.557353 *   0.11250    1.000000    
    813 H915  c    0.921752 *  0.658084 *  0.583900 *   0.11250    1.000000    
    814 H915  c    0.622752 *  0.137484 *  0.583900 *   0.11250    1.000000    
    815 H915  c    0.786904 *  0.508584 *  0.619720 *   0.11250    1.000000    
    816 H915  c    0.184944 *  0.897784 *  0.641332 *   0.11250    1.000000    
    817 H915  c    0.786904 *  0.286984 *  0.619720 *   0.11250    1.000000    
    818 H915  c    0.406544 *  0.897784 *  0.641332 *   0.11250    1.000000    
    819 H915  c    0.397704 *  0.897784 *  0.619720 *   0.11250    1.000000    
    820 H915  c    0.795744 *  0.508584 *  0.641332 *   0.11250    1.000000    
    821 H915  c    0.176104 *  0.897784 *  0.619720 *   0.11250    1.000000    
    822 H915  c    0.795744 *  0.286984 *  0.641332 *   0.11250    1.000000    
    823 H915  c    0.011952 *  0.748284 *  0.583900 *   0.11250    1.000000    
    824 H915  c    0.410894 *  0.158084 *  0.557353 *   0.11250    1.000000    
    825 H915  c    0.111894 *  0.637484 *  0.557353 *   0.11250    1.000000    
    826 H915  c    0.532552 *  0.047284 *  0.583900 *   0.11250    1.000000    
    827 H915  c    0.410894 *  0.637484 *  0.557353 *   0.11250    1.000000    
    828 H915  c    0.111894 *  0.158084 *  0.557353 *   0.11250    1.000000    
    829 H915  c    0.532552 *  0.748284 *  0.583900 *   0.11250    1.000000    
    830 H915  c    0.011952 *  0.047284 *  0.583900 *   0.11250    1.000000    
    831 H915  c    0.470754 *  0.637484 *  0.703699 *   0.11250    1.000000    
    832 H915  c    0.050095 *  0.047284 *  0.677151 *   0.11250    1.000000    
    833 H915  c    0.570695 *  0.748284 *  0.677151 *   0.11250    1.000000    
    834 H915  c    0.171754 *  0.158084 *  0.703699 *   0.11250    1.000000    
    835 H915  c    0.570695 *  0.047284 *  0.677151 *   0.11250    1.000000    
    836 H915  c    0.050095 *  0.748284 *  0.677151 *   0.11250    1.000000    
    837 H915  c    0.470754 *  0.158084 *  0.703699 *   0.11250    1.000000    
    838 H915  c    0.171754 *  0.637484 *  0.703699 *   0.11250    1.000000    
    839 H915  c    0.335905 *  0.008584 *  0.739518 *   0.11250    1.000000    
    840 H915  c    0.733945 *  0.397784 *  0.761130 *   0.11250    1.000000    
    841 H915  c    0.335905 *  0.786984 *  0.739518 *   0.11250    1.000000    
    842 H915  c    0.955545 *  0.397784 *  0.761130 *   0.11250    1.000000    
    843 H915  c    0.946705 *  0.397784 *  0.739518 *   0.11250    1.000000    
    844 H915  c    0.344745 *  0.008584 *  0.761130 *   0.11250    1.000000    
    845 H915  c    0.725105 *  0.397784 *  0.739518 *   0.11250    1.000000    
    846 H915  c    0.344745 *  0.786984 *  0.761130 *   0.11250    1.000000    
    847 H915  c    0.560954 *  0.248284 *  0.703699 *   0.11250    1.000000    
    848 H915  c    0.959895 *  0.658084 *  0.677151 *   0.11250    1.000000    
    849 H915  c    0.660895 *  0.137484 *  0.677151 *   0.11250    1.000000    
    850 H915  c    0.081554 *  0.547284 *  0.703699 *   0.11250    1.000000    
    851 H915  c    0.959895 *  0.137484 *  0.677151 *   0.11250    1.000000    
    852 H915  c    0.660895 *  0.658084 *  0.677151 *   0.11250    1.000000    
    853 H915  c    0.081554 *  0.248284 *  0.703699 *   0.11250    1.000000    
    854 H915  c    0.560954 *  0.547284 *  0.703699 *   0.11250    1.000000    
    855 Zn172 c    0.222082 *  0.810939 *  0.461233 *   2.00000    1.000000    
    856 Zn172 c    0.126721 *  0.897789 *  0.440424 *   2.00000    1.000000    
    857 Zn172 c    0.300411 *  0.897779 *  0.440424 *   2.00000    1.000000    
    858 Zn172 c    0.222072 *  0.984629 *  0.461233 *   2.00000    1.000000    
    859 Zn172 c    0.808922 *  0.397779 *  0.461233 *   2.00000    1.000000    
    860 Zn172 c    0.713561 *  0.484629 *  0.440424 *   2.00000    1.000000    
    861 Zn172 c    0.635232 *  0.397789 *  0.461233 *   2.00000    1.000000    
    862 Zn172 c    0.713571 *  0.310939 *  0.440424 *   2.00000    1.000000    
    863 Zn172 c    0.771084 *  0.310939 *  0.581031 *   2.00000    1.000000    
    864 Zn172 c    0.675722 *  0.397789 *  0.560222 *   2.00000    1.000000    
    865 Zn172 c    0.849412 *  0.397779 *  0.560222 *   2.00000    1.000000    
    866 Zn172 c    0.771074 *  0.484629 *  0.581031 *   2.00000    1.000000    
    867 Zn172 c    0.357924 *  0.897779 *  0.581031 *   2.00000    1.000000    
    868 Zn172 c    0.262562 *  0.984629 *  0.560222 *   2.00000    1.000000    
    869 Zn172 c    0.184234 *  0.897789 *  0.581031 *   2.00000    1.000000    
    870 Zn172 c    0.262572 *  0.810939 *  0.560222 *   2.00000    1.000000    
    871 Zn172 c    0.320085 *  0.810939 *  0.700829 *   2.00000    1.000000    
    872 Zn172 c    0.224723 *  0.897789 *  0.680021 *   2.00000    1.000000    
    873 Zn172 c    0.398414 *  0.897779 *  0.680021 *   2.00000    1.000000    
    874 Zn172 c    0.320075 *  0.984629 *  0.700829 *   2.00000    1.000000    
    875 Zn172 c    0.906925 *  0.397779 *  0.700829 *   2.00000    1.000000    
    876 Zn172 c    0.811564 *  0.484629 *  0.680021 *   2.00000    1.000000    
    877 Zn172 c    0.733235 *  0.397789 *  0.700829 *   2.00000    1.000000    
    878 Zn172 c    0.811574 *  0.310939 *  0.680021 *   2.00000    1.000000    
    879 O176  c    0.894087 *  0.528296 *  0.355316 *  -1.08000    1.000000    
    880 O176  c    0.895090 *  0.416309 *  0.351144 *  -1.08000    1.000000    
    881 O177  c    0.758872 *  0.495524 *  0.410925 *  -1.08000    1.000000    
    882 O177  c    0.754100 *  0.382636 *  0.410001 *  -1.08000    1.000000    
    883 C912  c    0.844580 *  0.513561 *  0.377472 *  -0.07025    1.000000    
    884 C912  c    0.840524 *  0.391591 *  0.375369 *  -0.07025    1.000000    
    885 C912  c    0.816239 *  0.507969 *  0.388580 *  -0.07025    1.000000    
    886 C912  c    0.812905 *  0.386013 *  0.386587 *  -0.07025    1.000000    
    887 C916  c    0.884172 *  0.466291 *  0.358385 *   1.07050    1.000000    
    888 C917  c    0.768810 *  0.440075 *  0.405445 *   1.07050    1.000000    
    889 C902  c    0.855906 *  0.455716 *  0.370752 *   0.00500    1.000000    
    890 C902  c    0.800173 *  0.444276 *  0.393171 *   0.00500    1.000000    
    891 H915  c    0.857110 *  0.563607 *  0.373825 *   0.11250    1.000000    
    892 H915  c    0.849218 *  0.345931 *  0.370172 *   0.11250    1.000000    
    893 H915  c    0.806384 *  0.553228 *  0.393852 *   0.11250    1.000000    
    894 H915  c    0.800087 *  0.336211 *  0.390295 *   0.11250    1.000000    
--------------------------------------------------------------------------------



  Molecule list generated from bond lengths :

  Total number of molecules =    22

--------------------------------------------------------------------------------
Molecule No./:  Atoms
Periodicity  :  
--------------------------------------------------------------------------------
     1  0    : H22  c   181 O3   c   196
     2  0    : H22  c   182 O3   c   186
     3  0    : O177 c   543 O177 c   544 O176 c   545 O176 c   546 C912 c   627
             : C912 c   628 C912 c   629 C912 c   630 C917 c   631 C916 c   632
             : C902 c   633 C902 c   634 H915 c   779 H915 c   780 H915 c   781
             : H915 c   782
     4  0    : O170 c   549 O170 c   551 O170 c   570 O170 c   572 C912 c   635
             : C912 c   637 C912 c   656 C912 c   658 C913 c   659 C913 c   670
             : C902 c   671 C902 c   682 H915 c   783 H915 c   785 H915 c   804
             : H915 c   806
     5  0    : O170 c   550 O170 c   552 O170 c   569 O170 c   571 C912 c   636
             : C912 c   638 C912 c   655 C912 c   657 C913 c   660 C913 c   669
             : C902 c   672 C902 c   681 H915 c   784 H915 c   786 H915 c   803
             : H915 c   805
     6  0    : O170 c   553 O170 c   555 O170 c   565 O170 c   567 C912 c   639
             : C912 c   641 C912 c   651 C912 c   653 C913 c   661 C913 c   667
             : C902 c   673 C902 c   679 H915 c   787 H915 c   789 H915 c   799
             : H915 c   801
     7  0    : O170 c   554 O170 c   556 O170 c   566 O170 c   568 C912 c   640
             : C912 c   642 C912 c   652 C912 c   654 C913 c   662 C913 c   668
             : C902 c   674 C902 c   680 H915 c   788 H915 c   790 H915 c   800
             : H915 c   802
     8  0    : O170 c   557 O170 c   559 O170 c   562 O170 c   564 C912 c   643
             : C912 c   645 C912 c   648 C912 c   650 C913 c   663 C913 c   666
             : C902 c   675 C902 c   678 H915 c   791 H915 c   793 H915 c   796
             : H915 c   798
     9  0    : O170 c   558 O170 c   560 O170 c   561 O170 c   563 C912 c   644
             : C912 c   646 C912 c   647 C912 c   649 C913 c   664 C913 c   665
             : C902 c   676 C902 c   677 H915 c   792 H915 c   794 H915 c   795
             : H915 c   797
    10  0    : O170 c   575 O170 c   577 O170 c   596 O170 c   598 C912 c   683
             : C912 c   685 C912 c   704 C912 c   706 C913 c   707 C913 c   718
             : C902 c   719 C902 c   730 H915 c   807 H915 c   809 H915 c   828
             : H915 c   830
    11  0    : O170 c   576 O170 c   578 O170 c   595 O170 c   597 C912 c   684
             : C912 c   686 C912 c   703 C912 c   705 C913 c   708 C913 c   717
             : C902 c   720 C902 c   729 H915 c   808 H915 c   810 H915 c   827
             : H915 c   829
    12  0    : O170 c   579 O170 c   581 O170 c   591 O170 c   593 C912 c   687
             : C912 c   689 C912 c   699 C912 c   701 C913 c   709 C913 c   715
             : C902 c   721 C902 c   727 H915 c   811 H915 c   813 H915 c   823
             : H915 c   825
    13  0    : O170 c   580 O170 c   582 O170 c   592 O170 c   594 C912 c   688
             : C912 c   690 C912 c   700 C912 c   702 C913 c   710 C913 c   716
             : C902 c   722 C902 c   728 H915 c   812 H915 c   814 H915 c   824
             : H915 c   826
    14  0    : O170 c   583 O170 c   585 O170 c   588 O170 c   590 C912 c   691
             : C912 c   693 C912 c   696 C912 c   698 C913 c   711 C913 c   714
             : C902 c   723 C902 c   726 H915 c   815 H915 c   817 H915 c   820
             : H915 c   822
    15  0    : O170 c   584 O170 c   586 O170 c   587 O170 c   589 C912 c   692
             : C912 c   694 C912 c   695 C912 c   697 C913 c   712 C913 c   713
             : C902 c   724 C902 c   725 H915 c   816 H915 c   818 H915 c   819
             : H915 c   821
    16  0    : O170 c   601 O170 c   603 O170 c   624 O170 c   626 C912 c   731
             : C912 c   733 C912 c   752 C912 c   754 C913 c   755 C913 c   766
             : C902 c   767 C902 c   778 H915 c   831 H915 c   833 H915 c   852
             : H915 c   854
    17  0    : O170 c   602 O170 c   604 O170 c   623 O170 c   625 C912 c   732
             : C912 c   734 C912 c   751 C912 c   753 C913 c   756 C913 c   765
             : C902 c   768 C902 c   777 H915 c   832 H915 c   834 H915 c   851
             : H915 c   853
    18  0    : O170 c   605 O170 c   607 O170 c   619 O170 c   621 C912 c   735
             : C912 c   737 C912 c   747 C912 c   749 C913 c   757 C913 c   763
             : C902 c   769 C902 c   775 H915 c   835 H915 c   837 H915 c   847
             : H915 c   849
    19  0    : O170 c   606 O170 c   608 O170 c   620 O170 c   622 C912 c   736
             : C912 c   738 C912 c   748 C912 c   750 C913 c   758 C913 c   764
             : C902 c   770 C902 c   776 H915 c   836 H915 c   838 H915 c   848
             : H915 c   850
    20  0    : O170 c   609 O170 c   611 O173 c   615 O172 c   617 H21  c   618
             : C912 c   739 C912 c   741 C912 c   744 C912 c   746 C913 c   759
             : C914 c   762 C902 c   771 C902 c   774 H915 c   839 H915 c   841
             : H915 c   844 H915 c   846
    21  0    : O173 c   610 O172 c   612 H21  c   613 O170 c   614 O170 c   616
             : C912 c   740 C912 c   742 C912 c   743 C912 c   745 C914 c   760
             : C913 c   761 C902 c   772 C902 c   773 H915 c   840 H915 c   842
             : H915 c   843 H915 c   845
[...]
   640 C912  c      1.052339           0.266580    1.186334   -0.409538
   641 C912  c      0.999422          -1.011205   -0.448963    0.592848
   642 C912  c      1.069096           1.130566    0.369885    0.492357
   643 C912  c      1.038178           0.028461    0.693426   -1.050995
   644 C912  c      1.058463          -0.736030    0.001966    1.048580
   645 C912  c      1.036742           0.017317   -0.687141   -1.051894
   646 C912  c      1.054261           0.734813   -0.000049    1.050374
   647 C912  c      1.049676           0.727533   -0.001465   -1.045600
   648 C912  c      1.037767          -0.022966    0.687420    1.053647
   649 C912  c      1.064613          -0.745257    0.001070   -1.055138
   650 C912  c      1.039119          -0.033196   -0.693461    1.051826
   651 C912  c      1.038097           0.311973    1.161104    0.542662
   652 C912  c      1.043787          -1.097800   -0.387668   -0.501495
   653 C912  c      1.020916           1.042921    0.455301   -0.596583
   654 C912  c      1.079753          -0.248497   -1.215716    0.404443
   655 C912  c      1.031756          -1.107723    0.394085   -0.517059
   656 C912  c      1.045599           1.035423   -0.451676   -0.600605
   657 C912  c      1.057574          -0.261712    1.206519    0.403939
   658 C912  c      1.063072           0.300582   -1.172746    0.526445
   659 C913  c    -17.539159           4.724500   -5.345532   -0.573058
   660 C913  c    -17.544953          -4.636649    5.386506   -0.317451
   661 C913  c    -17.536824           4.746508    5.300700   -0.593989
   662 C913  c    -17.530582          -4.677749   -5.364427   -0.260172
   663 C913  c    -17.480906          -0.133512   -0.001931    6.864795
   664 C913  c    -17.490266          -0.027257   -0.007969   -7.008965
   665 C913  c    -17.498568          -0.092929    0.000566    7.025028
   666 C913  c    -17.491206           0.211758    0.010143   -6.890667
   667 C913  c    -17.511199          -4.606054   -5.423010    0.260577
   668 C913  c    -17.515022           4.741080    5.261288    0.495480
   669 C913  c    -17.513322           4.690551   -5.293643    0.499176
   670 C913  c    -17.494282          -4.608699    5.415024    0.337043
   671 C902  c      1.156337          -2.246008    2.705720    0.130153
   672 C902  c      1.167656           2.363162   -2.671120    0.177034
   673 C902  c      1.135983          -2.251106   -2.711132    0.132999
   674 C902  c      1.190762           2.359945    2.671744    0.118699
   675 C902  c      1.250016           0.063587    0.008963   -3.745824
   676 C902  c      1.205288           0.012670    0.003901    3.609480
   677 C902  c      1.205180          -0.000682    0.000382   -3.608278
   678 C902  c      1.251536          -0.109002   -0.009850    3.745999
   679 C902  c      1.145352           2.273412    2.702046   -0.074891
   680 C902  c      1.193159          -2.323329   -2.703009   -0.192061
   681 C902  c      1.182278          -2.342338    2.697775   -0.219831
   682 C902  c      1.168224           2.260319   -2.708323   -0.100974
   683 C912  c      1.016800          -1.053526    0.449988    0.469340
   684 C912  c      1.076227           0.246919   -1.187766   -0.563793
   685 C912  c      1.078064          -0.249195    1.185575   -0.576416
   686 C912  c      1.019939           1.064026   -0.442655    0.461091
   687 C912  c      1.078611          -0.249125   -1.185921   -0.576580
   688 C912  c      1.075803           0.245570    1.189201   -0.562693
   689 C912  c      1.017034          -1.054319   -0.449497    0.468289
   690 C912  c      1.019434           1.065406    0.441602    0.457731
   691 C912  c      1.052055          -0.006562    0.703746   -1.051023
   692 C912  c      1.048639          -0.710788    0.000392    1.053582
   693 C912  c      1.051936          -0.007705   -0.703770   -1.050869
   694 C912  c      1.051286           0.729051    0.000022    1.048086
   695 C912  c      1.047013           0.709806   -0.000619   -1.052708
   696 C912  c      1.053941           0.007498    0.703464    1.053755
   697 C912  c      1.052166          -0.730285   -0.000143   -1.047988
   698 C912  c      1.053910           0.006414   -0.703328    1.053913
   699 C912  c      1.077354           0.249711    1.184789    0.576099
   700 C912  c      1.017569          -1.063926   -0.441507   -0.456685
   701 C912  c      1.018494           1.056257    0.449232   -0.467824
   702 C912  c      1.076882          -0.244101   -1.190164    0.562686
   703 C912  c      1.019337          -1.063478    0.442880   -0.460664
   704 C912  c      1.018311           1.055548   -0.450141   -0.468662
   705 C912  c      1.076731          -0.246128    1.188438    0.563451
   706 C912  c      1.077409           0.250060   -1.184891    0.576202
   707 C913  c    -17.525382           4.764221   -5.285104   -0.063927
   708 C913  c    -17.524181          -4.767643    5.277221   -0.037546
   709 C913  c    -17.524469           4.767704    5.281715   -0.060689
   710 C913  c    -17.524026          -4.769585   -5.274293   -0.029814
   711 C913  c    -17.490230           0.048818    0.000807    6.942274
   712 C913  c    -17.494748          -0.031178   -0.002285   -6.973238
   713 C913  c    -17.487586           0.020664    0.001885    6.957843
   714 C913  c    -17.472096          -0.046172   -0.000756   -6.920679
   715 C913  c    -17.523831          -4.760336   -5.291619    0.050567
   716 C913  c    -17.527328           4.774511    5.276099    0.050369
   717 C913  c    -17.525992           4.768181   -5.281688    0.052025
   718 C913  c    -17.523132          -4.758017    5.292562    0.054740
   719 C902  c      1.171180          -2.247596    2.750952   -0.144026
   720 C902  c      1.173691           2.260420   -2.745770   -0.141999
   721 C902  c      1.171558          -2.248569   -2.749859   -0.145693
   722 C902  c      1.173644           2.260411    2.746591   -0.146436
   723 C902  c      1.245128          -0.024882   -0.000170   -3.705483
   724 C902  c      1.220067           0.029410    0.001049    3.654372
   725 C902  c      1.219294          -0.028960   -0.000964   -3.653524
   726 C902  c      1.250000           0.023590    0.000266    3.710323
   727 C902  c      1.172041           2.249713    2.749706    0.146588
   728 C902  c      1.172989          -2.256978   -2.749214    0.140026
   729 C902  c      1.173667          -2.257637    2.748299    0.136566
   730 C902  c      1.172383           2.249461   -2.750922    0.145220
   731 C912  c      1.032464          -1.064048    0.431492    0.521425
   732 C912  c      1.067616           0.270946   -1.186312   -0.506894
   733 C912  c      1.069653          -0.270868    1.186807   -0.509842
   734 C912  c      1.031486           1.064907   -0.430718    0.521294
   735 C912  c      1.066279          -0.271582   -1.186540   -0.512556
   736 C912  c      1.071075           0.271007    1.185875   -0.505328
   737 C912  c      1.025694          -1.063682   -0.432285    0.519041
   738 C912  c      1.038814           1.064714    0.430516    0.524714
   739 C912  c      1.201170          -0.006588    0.644089   -0.961004
   740 C912  c      1.410580          -0.522396    0.016828    1.284893
   741 C912  c      1.253495          -0.004409   -0.683685   -0.923972
   742 C912  c      1.543541           0.616750    0.015379    1.378614
   743 C912  c      1.250228           0.680353   -0.005565   -0.920576
   744 C912  c      1.407503           0.001010    0.525067    1.281970
   745 C912  c      1.200708          -0.647788   -0.003184   -0.955677
   746 C912  c      1.542191           0.003095   -0.613871    1.378347
   747 C912  c      1.060108           0.273408    1.186688    0.505208
   748 C912  c      1.039725          -1.065805   -0.430578   -0.524244
   749 C912  c      1.032962           1.064989    0.431362   -0.525691
   750 C912  c      1.071358          -0.272148   -1.186196    0.505496
   751 C912  c      1.036225          -1.066250    0.430746   -0.525152
   752 C912  c      1.036604           1.065558   -0.430551   -0.524204
   753 C912  c      1.064861          -0.272662    1.187196    0.503151
   754 C912  c      1.065917           0.272320   -1.186044    0.506008
   755 C913  c    -17.518306           4.707821   -5.322425   -0.291296
   756 C913  c    -17.518955          -4.699366    5.328156   -0.289426
   757 C913  c    -17.520710           4.708559    5.321225   -0.286416
   758 C913  c    -17.516158          -4.697829   -5.330316   -0.291726
   759 C913  c    -17.437267           0.030316    0.011465    6.975172
   760 C914  c    -14.313554           0.577719   -0.048401   -4.516199
   761 C913  c    -17.450932          -0.003098    0.051360    6.968885
   762 C914  c    -14.317501          -0.010946   -0.590111   -4.515352
   763 C913  c    -17.518687          -4.702519   -5.327726    0.298073
   764 C913  c    -17.514488           4.697142    5.332822    0.303793
   765 C913  c    -17.516020           4.697183   -5.330959    0.303310
   766 C913  c    -17.517355          -4.701190    5.330469    0.296516
   767 C902  c      1.177860          -2.287485    2.728113    0.040657
   768 C902  c      1.177212           2.289300   -2.728821    0.044484
   769 C902  c      1.173432          -2.288109   -2.728503    0.036279
   770 C902  c      1.181881           2.288554    2.728271    0.047806
   771 C902  c      1.367736          -0.016590   -0.021316   -3.600197
   772 C902  c      2.107248           0.096318    0.049960    4.377675
   773 C902  c      1.361947           0.011242   -0.023402   -3.593460
   774 C902  c      2.103943           0.008917   -0.085738    4.376739
   775 C902  c      1.174761           2.287318    2.730427   -0.046801
   776 C902  c      1.183130          -2.288401   -2.729350   -0.051659
   777 C902  c      1.179017          -2.289013    2.730383   -0.052654
   778 C902  c      1.178695           2.287156   -2.729299   -0.046241
   779 H915  c     -2.058800          -0.637520   -0.047691   -0.256393
   780 H915  c     -1.862617           0.470074   -0.130048   -0.308845
   781 H915  c     -1.745911           0.783645   -0.213737    0.085348
   782 H915  c     -1.746247          -0.480162   -0.102220    0.049010
   783 H915  c     -1.929078          -0.086929   -0.476854    0.390079
   784 H915  c     -1.922707          -0.464643   -0.102322   -0.335357
   785 H915  c     -1.800779           0.328785    0.124572   -0.388871
   786 H915  c     -1.853993           0.166971    0.443919    0.319201
   787 H915  c     -1.824962           0.320210   -0.137726   -0.374518
   788 H915  c     -1.879285          -0.452657    0.107483   -0.337740
   789 H915  c     -1.953019          -0.078270    0.476314    0.402499
   790 H915  c     -1.847790           0.165458   -0.456457    0.312576
   791 H915  c     -1.927906           0.003179    0.543670    0.277269
   792 H915  c     -1.869453          -0.536177    0.000484   -0.228217
   793 H915  c     -1.932159          -0.006581   -0.548069    0.281827
   794 H915  c     -1.877580           0.533623   -0.000999   -0.233903
   795 H915  c     -1.889646           0.542208   -0.001416    0.251181
   796 H915  c     -1.929782           0.014604    0.547905   -0.279964
   797 H915  c     -1.851517          -0.533420    0.001069    0.209191
   798 H915  c     -1.926711           0.006780   -0.545912   -0.279914
   799 H915  c     -1.851578          -0.374890    0.101933    0.399044
   800 H915  c     -1.902603          -0.132678    0.486089   -0.319091
   801 H915  c     -1.894848           0.128867   -0.394065   -0.383178
   802 H915  c     -1.820226           0.424865   -0.144504    0.331925
   803 H915  c     -1.899876          -0.147594   -0.457845   -0.313030
   804 H915  c     -1.876204           0.117328    0.411349   -0.388539
   805 H915  c     -1.850404           0.433733    0.133014    0.346083
   806 H915  c     -1.824380          -0.371515   -0.112660    0.389031
   807 H915  c     -1.950223          -0.114208   -0.497649    0.398647
   808 H915  c     -1.793697          -0.376551   -0.133691   -0.347342
   809 H915  c     -1.787171           0.366937    0.133917   -0.353487
   810 H915  c     -1.944123           0.120537    0.496722    0.390219
   811 H915  c     -1.786229           0.366850   -0.134566   -0.353145
   812 H915  c     -1.793856          -0.377228    0.134853   -0.345519
   813 H915  c     -1.949971          -0.114415    0.497744    0.398386
   814 H915  c     -1.945023           0.121451   -0.498189    0.389430
   815 H915  c     -1.904463           0.002491    0.543117    0.267313
   816 H915  c     -1.896694          -0.541477   -0.000119   -0.248907
   817 H915  c     -1.904695           0.001574   -0.543105    0.267527
   818 H915  c     -1.888693           0.534551   -0.000379   -0.245569
   819 H915  c     -1.899631           0.541170   -0.000282    0.249715
   820 H915  c     -1.901397          -0.001309    0.542293   -0.263665
   821 H915  c     -1.886360          -0.534134    0.000163    0.242479
   822 H915  c     -1.901389          -0.002130   -0.542185   -0.263368
   823 H915  c     -1.789165          -0.368307    0.132190    0.353307
   824 H915  c     -1.949338          -0.119463    0.501779   -0.388733
   825 H915  c     -1.947217           0.116199   -0.495214   -0.396344
   826 H915  c     -1.791468           0.375366   -0.135350    0.346886
   827 H915  c     -1.945864          -0.119613   -0.498268   -0.389553
   828 H915  c     -1.947522           0.115926    0.495109   -0.396698
   829 H915  c     -1.792600           0.375280    0.133519    0.348543
   830 H915  c     -1.788980          -0.367818   -0.132179    0.353697
   831 H915  c     -1.913354          -0.122846   -0.468506    0.369184
   832 H915  c     -1.821872          -0.389859   -0.121889   -0.363271
   833 H915  c     -1.818061           0.386870    0.123480   -0.362763
   834 H915  c     -1.914524           0.123509    0.466281    0.365497
   835 H915  c     -1.820411           0.386497   -0.123568   -0.363903
   836 H915  c     -1.819555          -0.389817    0.121250   -0.362707
   837 H915  c     -1.921952          -0.122979    0.466632    0.365989
   838 H915  c     -1.905086           0.123082   -0.467289    0.369566
   839 H915  c     -1.837181          -0.001083    0.488995    0.292044
   840 H915  c     -1.669896          -0.248002    0.002684   -0.163911
   841 H915  c     -1.783316           0.000494   -0.503444    0.333619
   842 H915  c     -1.394400           0.268746    0.003910    0.040350
   843 H915  c     -1.790172           0.505220    0.004231    0.338782
   844 H915  c     -1.674365          -0.003599    0.246761   -0.165640
   845 H915  c     -1.838478          -0.488822    0.005864    0.296009
   846 H915  c     -1.396102          -0.002480   -0.269000    0.039741
   847 H915  c     -1.831135          -0.381482    0.124264    0.356893
   848 H915  c     -1.903836          -0.124012    0.469971   -0.368891
   849 H915  c     -1.909844           0.123232   -0.470842   -0.372482
   850 H915  c     -1.819098           0.385534   -0.121147    0.363447
   851 H915  c     -1.906462          -0.124361   -0.469915   -0.369744
   852 H915  c     -1.906598           0.123754    0.470737   -0.370923
   853 H915  c     -1.826026           0.384415    0.123456    0.360283
   854 H915  c     -1.825394          -0.383715   -0.121947    0.359310
   855 Zn172 c    -20.891692          -0.027453   -0.405521   -0.040864
   856 Zn172 c    -20.969391          -0.498935   -0.023259    0.472499
   857 Zn172 c    -20.554971           0.583235    0.065230    0.048400
   858 Zn172 c    -20.881999          -0.058259    0.413864   -0.028206
   859 Zn172 c    -20.682686           0.333357    0.025500   -0.026308
   860 Zn172 c    -20.781608          -0.228838    0.383918   -0.306311
   861 Zn172 c    -20.611492          -0.545408    0.004282    0.072114
   862 Zn172 c    -20.681699          -0.161868   -0.211661   -0.356569
   863 Zn172 c    -20.981936          -0.006798   -0.219469    0.099998
   864 Zn172 c    -20.560623          -0.498919   -0.000839    0.044254
   865 Zn172 c    -20.541610           0.532900    0.002762    0.036805
   866 Zn172 c    -20.980657          -0.009055    0.221916    0.099685
   867 Zn172 c    -20.591250           0.551034    0.001982   -0.143369
   868 Zn172 c    -21.014912          -0.024797    0.270957   -0.025594
   869 Zn172 c    -20.573210          -0.563289   -0.000509   -0.110776
   870 Zn172 c    -21.008966          -0.016645   -0.269513   -0.030884
   871 Zn172 c    -20.883664          -0.005671   -0.276974    0.122938
   872 Zn172 c    -20.664985          -0.477704    0.000733    0.105237
   873 Zn172 c    -20.646723           0.472855    0.001507    0.088644
   874 Zn172 c    -20.890120          -0.004557    0.284118    0.112606
   875 Zn172 c    -20.673728           0.496825   -0.002421   -0.139092
   876 Zn172 c    -20.900971           0.004154    0.307666   -0.068060
   877 Zn172 c    -20.669623          -0.505890   -0.005038   -0.144105
   878 Zn172 c    -20.901900           0.005114   -0.307093   -0.069286
   879 O176  c     16.970308          -0.826843   -4.230027   -3.156027
   880 O176  c     18.812965          -0.878549    3.044478   -1.206350
   881 O177  c     14.865743          -0.152741   -4.586638    0.230694
   882 O177  c     14.704190           0.473644    4.953722    0.732350
   883 C912  c      1.489134           0.407225    0.701432   -1.149562
   884 C912  c      1.654994           0.573692   -0.687206   -1.382642
   885 C912  c      1.256575          -0.275808    0.596595    0.936813
   886 C912  c      1.335335          -0.265845   -0.838929    0.820478
   887 C916  c    -15.171916          -1.899822   -2.215596    5.292101
   888 C917  c    -17.413721           2.412440    0.253763   -6.643345
   889 C902  c      2.050079           1.344963    0.291208   -3.924325
   890 C902  c      1.372998          -1.138589   -0.248385    3.303222
   891 H915  c     -1.532853          -0.105908    0.288385    0.144840
   892 H915  c     -0.970835           0.243861   -0.416158   -0.434893
   893 H915  c     -1.802302           0.145284    0.504463   -0.279793
   894 H915  c     -1.621964           0.114346   -0.498202   -0.289802
-------------------------------------------------------------------------------

  Total time to end of lattice properties =    3179.5057 s


  Peak dynamic memory used =     148.21 MB 


  Timing analysis for GULP :

--------------------------------------------------------------------------------
  Task / Subroutine                                          Time (Seconds)
--------------------------------------------------------------------------------
  Calculation of reciprocal space energy and derivatives        855.4862
  Calculation of real space energy and derivatives             1886.4383
  Calculation of three-body energy and derivatives                6.1744
  Calculation of four-body energy and derivatives                 6.6961
  Calculation of molecules and connectivity                       0.3365
  Calculation of phonons                                         32.3024
  Calculation of scattering                                       0.0000
  Calculation of matrix inversion                               386.5678
  Symmetry generation of equivalent positions                     0.0077
  Global summation overhead                                       0.0108
--------------------------------------------------------------------------------
  Total CPU time                                               3179.5057
--------------------------------------------------------------------------------


  Dump file written as fit1.res                                                


  Job Finished at 16:54.32 27th May        2016                               

