********************************************************************************
*                       GENERAL UTILITY LATTICE PROGRAM                        *
*                                 Julian Gale                                  *
*                      Nanochemistry Research Institute                        *
*                           Department of Chemistry                            *
*                    Curtin University, Western Australia                      *
********************************************************************************
* Version = 4.4.0 * Last modified = 31st March 2015                            *
********************************************************************************
*  optimise     - perform optimisation run                                     *
*  conv         - constant volume calculation                                  *
*  property     - calculate properties for final geometry                      *
*  phonon       - calculate phonons for final geometry                         *
*  potential    - calculate electrostatic site potentials                      *
*  molmec       - molecule option activated, Coulomb subtract 1-2/1-3 terms    *
*  fix_molecule - fix atoms of molecule as at the start of the run             *
*  compare      - compare initial and final structures                         *
*  rfo          - optimisation step to be determined by RFO method             *
********************************************************************************

  Job Started  at 15:09.32 18th May        2016                               

  Number of CPUs =     1


  Total number of configurations input =   1

********************************************************************************
*  Input for Configuration =   1                                               *
********************************************************************************

  Formula = Ti180O446H84C160Zn24                                        

  Number of irreducible atoms/shells =     894


  Total number atoms/shells =     894

  Dimensionality = 3               :  Bulk   



  Cartesian lattice vectors (Angstroms) :

       17.724000    0.000000    0.000000
        0.000000   19.461000    0.000000
        0.000000    0.000000  114.868482

  Cell parameters (Angstroms/Degrees):

  a =      17.7240    alpha =  90.0000
  b =      19.4610    beta  =  90.0000
  c =     114.8685    gamma =  90.0000

  Initial cell volume =       39621.213782 Angs**3

  Temperature of configuration =  0.000     K 

  Pressure of configuration =         0.000 GPa 

  Fractional coordinates of asymmetric unit :

--------------------------------------------------------------------------------
   No.  Atomic       x           y          z         Charge      Occupancy
        Label      (Frac)      (Frac)     (Frac)        (e)         (Frac)  
--------------------------------------------------------------------------------
      1 Ti    c    0.320000    0.733333    0.339268     2.43600    1.000000    
      2 Ti    c    0.154733 *  0.399540 *  0.340047 *   2.43600    1.000000    
      3 Ti    c    0.987882 *  0.399518 *  0.339996 *   2.43600    1.000000    
      4 Ti    c    0.821031 *  0.399374 *  0.340046 *   2.43600    1.000000    
      5 Ti    c    0.655875 *  0.398959 *  0.338484 *   2.43600    1.000000    
      6 Ti    c    0.486893 *  0.399863 *  0.338981 *   2.43600    1.000000    
      7 Ti    c    0.321485 *  0.399713 *  0.340136 *   2.43600    1.000000    
      8 Ti    c    0.154620 *  0.065686 *  0.339506 *   2.43600    1.000000    
      9 Ti    c    0.988260 *  0.065605 *  0.339948 *   2.43600    1.000000    
     10 Ti    c    0.821544 *  0.066213 *  0.339915 *   2.43600    1.000000    
     11 Ti    c    0.654361 *  0.065763 *  0.339824 *   2.43600    1.000000    
     12 Ti    c    0.487322 *  0.065720 *  0.339875 *   2.43600    1.000000    
     13 Ti    c    0.320980 *  0.065683 *  0.339932 *   2.43600    1.000000    
     14 Ti    c    0.154429 *  0.733080 *  0.339426 *   2.43600    1.000000    
     15 Ti    c    0.989002 *  0.732942 *  0.340038 *   2.43600    1.000000    
     16 Ti    c    0.825858 *  0.732709 *  0.337876 *   2.43600    1.000000    
     17 Ti    c    0.649446 *  0.731503 *  0.337827 *   2.43600    1.000000    
     18 Ti    c    0.485966 *  0.731704 *  0.339966 *   2.43600    1.000000    
     19 Ti    c    0.071007 *  0.232053 *  0.337796 *   2.43600    1.000000    
     20 Ti    c    0.904101 *  0.232608 *  0.337806 *   2.43600    1.000000    
     21 Ti    c    0.737473 *  0.233136 *  0.337706 *   2.43600    1.000000    
     22 Ti    c    0.905627 *  0.899344 *  0.337788 *   2.43600    1.000000    
     23 Ti    c    0.570559 *  0.898121 *  0.337709 *   2.43600    1.000000    
     24 Ti    c    0.403348 *  0.899149 *  0.337755 *   2.43600    1.000000    
     25 Ti    c    0.904221 *  0.566056 *  0.337625 *   2.43600    1.000000    
     26 Ti    c    0.571439 *  0.564139 *  0.339324 *   2.43600    1.000000    
     27 Ti    c    0.404836 *  0.566640 *  0.337517 *   2.43600    1.000000    
     28 Ti    c    0.238192 *  0.231996 *  0.337823 *   2.43600    1.000000    
     29 Ti    c    0.571455 *  0.230566 *  0.338069 *   2.43600    1.000000    
     30 Ti    c    0.405153 *  0.233424 *  0.337820 *   2.43600    1.000000    
     31 Ti    c    0.236742 *  0.899356 *  0.339268 *   2.43600    1.000000    
     32 Ti    c    0.072263 *  0.899515 *  0.339440 *   2.43600    1.000000    
     33 Ti    c    0.738001 *  0.901309 *  0.337468 *   2.43600    1.000000    
     34 Ti    c    0.238060 *  0.566973 *  0.337636 *   2.43600    1.000000    
     35 Ti    c    0.071000 *  0.566870 *  0.337681 *   2.43600    1.000000    
     36 Ti    c    0.737647 *  0.564169 *  0.337206 *   2.43600    1.000000    
     37 Ti    c    0.321030 *  0.565972 *  0.310434 *   2.43600    1.000000    
     38 Ti    c    0.154504 *  0.232561 *  0.310703 *   2.43600    1.000000    
     39 Ti    c    0.987762 *  0.232630 *  0.310636 *   2.43600    1.000000    
     40 Ti    c    0.821201 *  0.232451 *  0.310518 *   2.43600    1.000000    
     41 Ti    c    0.654435 *  0.232267 *  0.310666 *   2.43600    1.000000    
     42 Ti    c    0.487914 *  0.232340 *  0.310711 *   2.43600    1.000000    
     43 Ti    c    0.321200 *  0.232576 *  0.310629 *   2.43600    1.000000    
     44 Ti    c    0.154233 *  0.899315 *  0.312141 *   2.43600    1.000000    
     45 Ti    c    0.988118 *  0.899287 *  0.311093 *   2.43600    1.000000    
     46 Ti    c    0.821172 *  0.899213 *  0.310446 *   2.43600    1.000000    
     47 Ti    c    0.654283 *  0.899035 *  0.310439 *   2.43600    1.000000    
     48 Ti    c    0.487618 *  0.899046 *  0.310494 *   2.43600    1.000000    
     49 Ti    c    0.320722 *  0.899173 *  0.311132 *   2.43600    1.000000    
     50 Ti    c    0.154393 *  0.565919 *  0.310560 *   2.43600    1.000000    
     51 Ti    c    0.987914 *  0.565797 *  0.310451 *   2.43600    1.000000    
     52 Ti    c    0.821387 *  0.565935 *  0.310222 *   2.43600    1.000000    
     53 Ti    c    0.653932 *  0.565360 *  0.310974 *   2.43600    1.000000    
     54 Ti    c    0.488193 *  0.565622 *  0.311023 *   2.43600    1.000000    
     55 Ti    c    0.404039 *  0.732253 *  0.311164 *   2.43600    1.000000    
     56 Ti    c    0.237645 *  0.399278 *  0.311465 *   2.43600    1.000000    
     57 Ti    c    0.071105 *  0.399215 *  0.311431 *   2.43600    1.000000    
     58 Ti    c    0.904606 *  0.399064 *  0.311393 *   2.43600    1.000000    
     59 Ti    c    0.738655 *  0.398656 *  0.311034 *   2.43600    1.000000    
     60 Ti    c    0.571020 *  0.398632 *  0.311143 *   2.43600    1.000000    
     61 Ti    c    0.403867 *  0.398959 *  0.311212 *   2.43600    1.000000    
     62 Ti    c    0.237944 *  0.065747 *  0.311408 *   2.43600    1.000000    
     63 Ti    c    0.070952 *  0.065812 *  0.311411 *   2.43600    1.000000    
     64 Ti    c    0.904401 *  0.066073 *  0.311405 *   2.43600    1.000000    
     65 Ti    c    0.737806 *  0.065670 *  0.311343 *   2.43600    1.000000    
     66 Ti    c    0.571149 *  0.065795 *  0.311355 *   2.43600    1.000000    
     67 Ti    c    0.404523 *  0.065684 *  0.311403 *   2.43600    1.000000    
     68 Ti    c    0.237566 *  0.732841 *  0.311119 *   2.43600    1.000000    
     69 Ti    c    0.071341 *  0.732703 *  0.311307 *   2.43600    1.000000    
     70 Ti    c    0.906036 *  0.732589 *  0.310743 *   2.43600    1.000000    
     71 Ti    c    0.737739 *  0.732202 *  0.310826 *   2.43600    1.000000    
     72 Ti    c    0.569452 *  0.732274 *  0.310764 *   2.43600    1.000000    
     73 Ti    c    0.321029 *  0.732436 *  0.283470 *   2.43600    1.000000    
     74 Ti    c    0.154434 *  0.399146 *  0.283579 *   2.43600    1.000000    
     75 Ti    c    0.987840 *  0.399130 *  0.283544 *   2.43600    1.000000    
     76 Ti    c    0.821258 *  0.399083 *  0.283451 *   2.43600    1.000000    
     77 Ti    c    0.654401 *  0.399063 *  0.283335 *   2.43600    1.000000    
     78 Ti    c    0.487792 *  0.399083 *  0.283404 *   2.43600    1.000000    
     79 Ti    c    0.321032 *  0.399131 *  0.283552 *   2.43600    1.000000    
     80 Ti    c    0.154455 *  0.065777 *  0.283663 *   2.43600    1.000000    
     81 Ti    c    0.987804 *  0.065763 *  0.283651 *   2.43600    1.000000    
     82 Ti    c    0.821125 *  0.065729 *  0.283575 *   2.43600    1.000000    
     83 Ti    c    0.654454 *  0.065739 *  0.283529 *   2.43600    1.000000    
     84 Ti    c    0.487805 *  0.065727 *  0.283584 *   2.43600    1.000000    
     85 Ti    c    0.321117 *  0.065746 *  0.283664 *   2.43600    1.000000    
     86 Ti    c    0.154380 *  0.732516 *  0.283473 *   2.43600    1.000000    
     87 Ti    c    0.988032 *  0.732518 *  0.283363 *   2.43600    1.000000    
     88 Ti    c    0.821074 *  0.732408 *  0.283132 *   2.43600    1.000000    
     89 Ti    c    0.654406 *  0.732386 *  0.283094 *   2.43600    1.000000    
     90 Ti    c    0.487607 *  0.732420 *  0.283312 *   2.43600    1.000000    
     91 Ti    c    0.404744 *  0.565684 *  0.283593 *   2.43600    1.000000    
     92 Ti    c    0.237777 *  0.232427 *  0.283615 *   2.43600    1.000000    
     93 Ti    c    0.071167 *  0.232454 *  0.283604 *   2.43600    1.000000    
     94 Ti    c    0.904522 *  0.232407 *  0.283549 *   2.43600    1.000000    
     95 Ti    c    0.737742 *  0.232439 *  0.283535 *   2.43600    1.000000    
     96 Ti    c    0.571112 *  0.232422 *  0.283586 *   2.43600    1.000000    
     97 Ti    c    0.404499 *  0.232451 *  0.283606 *   2.43600    1.000000    
     98 Ti    c    0.237267 *  0.899119 *  0.284124 *   2.43600    1.000000    
     99 Ti    c    0.071625 *  0.899183 *  0.284112 *   2.43600    1.000000    
    100 Ti    c    0.904972 *  0.899067 *  0.283653 *   2.43600    1.000000    
    101 Ti    c    0.737857 *  0.899074 *  0.283439 *   2.43600    1.000000    
    102 Ti    c    0.570911 *  0.899036 *  0.283463 *   2.43600    1.000000    
    103 Ti    c    0.403878 *  0.899108 *  0.283699 *   2.43600    1.000000    
    104 Ti    c    0.237798 *  0.565763 *  0.283478 *   2.43600    1.000000    
    105 Ti    c    0.071216 *  0.565792 *  0.283459 *   2.43600    1.000000    
    106 Ti    c    0.904548 *  0.565753 *  0.283363 *   2.43600    1.000000    
    107 Ti    c    0.737396 *  0.565662 *  0.283471 *   2.43600    1.000000    
    108 Ti    c    0.571062 *  0.565706 *  0.283684 *   2.43600    1.000000    
    109 Ti    c    0.321225 *  0.565739 *  0.256480 *   2.43600    1.000000    
    110 Ti    c    0.154464 *  0.232457 *  0.256566 *   2.43600    1.000000    
    111 Ti    c    0.987791 *  0.232444 *  0.256530 *   2.43600    1.000000    
    112 Ti    c    0.821103 *  0.232418 *  0.256488 *   2.43600    1.000000    
    113 Ti    c    0.654423 *  0.232390 *  0.256494 *   2.43600    1.000000    
    114 Ti    c    0.487782 *  0.232399 *  0.256532 *   2.43600    1.000000    
    115 Ti    c    0.321137 *  0.232432 *  0.256559 *   2.43600    1.000000    
    116 Ti    c    0.154433 *  0.899102 *  0.256932 *   2.43600    1.000000    
    117 Ti    c    0.988008 *  0.899109 *  0.256735 *   2.43600    1.000000    
    118 Ti    c    0.821266 *  0.899104 *  0.256474 *   2.43600    1.000000    
    119 Ti    c    0.654435 *  0.899099 *  0.256402 *   2.43600    1.000000    
    120 Ti    c    0.487602 *  0.899088 *  0.256520 *   2.43600    1.000000    
    121 Ti    c    0.320863 *  0.899089 *  0.256776 *   2.43600    1.000000    
    122 Ti    c    0.154478 *  0.565741 *  0.256439 *   2.43600    1.000000    
    123 Ti    c    0.987776 *  0.565759 *  0.256375 *   2.43600    1.000000    
    124 Ti    c    0.821015 *  0.565766 *  0.256349 *   2.43600    1.000000    
    125 Ti    c    0.654350 *  0.565762 *  0.256459 *   2.43600    1.000000    
    126 Ti    c    0.487862 *  0.565752 *  0.256526 *   2.43600    1.000000    
    127 Ti    c    0.404298 *  0.732437 *  0.255622 *   2.43600    1.000000    
    128 Ti    c    0.237765 *  0.399098 *  0.255733 *   2.43600    1.000000    
    129 Ti    c    0.071134 *  0.399100 *  0.255729 *   2.43600    1.000000    
    130 Ti    c    0.904496 *  0.399094 *  0.255679 *   2.43600    1.000000    
    131 Ti    c    0.737820 *  0.399071 *  0.255627 *   2.43600    1.000000    
    132 Ti    c    0.571069 *  0.399058 *  0.255626 *   2.43600    1.000000    
    133 Ti    c    0.404378 *  0.399085 *  0.255687 *   2.43600    1.000000    
    134 Ti    c    0.237766 *  0.065772 *  0.255861 *   2.43600    1.000000    
    135 Ti    c    0.071161 *  0.065765 *  0.255856 *   2.43600    1.000000    
    136 Ti    c    0.904532 *  0.065754 *  0.255794 *   2.43600    1.000000    
    137 Ti    c    0.737819 *  0.065746 *  0.255738 *   2.43600    1.000000    
    138 Ti    c    0.571067 *  0.065722 *  0.255744 *   2.43600    1.000000    
    139 Ti    c    0.404371 *  0.065723 *  0.255805 *   2.43600    1.000000    
    140 Ti    c    0.237752 *  0.732414 *  0.255697 *   2.43600    1.000000    
    141 Ti    c    0.071225 *  0.732436 *  0.255655 *   2.43600    1.000000    
    142 Ti    c    0.904617 *  0.732457 *  0.255530 *   2.43600    1.000000    
    143 Ti    c    0.737788 *  0.732453 *  0.255442 *   2.43600    1.000000    
    144 Ti    c    0.570943 *  0.732463 *  0.255502 *   2.43600    1.000000    
    145 Ti    c    0.404484 *  0.565778 *  0.229325 *   2.43600    1.000000    
    146 Ti    c    0.321029 *  0.732503 *  0.227146 *   2.43600    1.000000    
    147 Ti    c    0.237788 *  0.232395 *  0.229396 *   2.43600    1.000000    
    148 Ti    c    0.154488 *  0.399055 *  0.227183 *   2.43600    1.000000    
    149 Ti    c    0.071167 *  0.232396 *  0.229381 *   2.43600    1.000000    
    150 Ti    c    0.987838 *  0.399039 *  0.227161 *   2.43600    1.000000    
    151 Ti    c    0.904496 *  0.232379 *  0.229341 *   2.43600    1.000000    
    152 Ti    c    0.821138 *  0.399034 *  0.227122 *   2.43600    1.000000    
    153 Ti    c    0.737774 *  0.232363 *  0.229316 *   2.43600    1.000000    
    154 Ti    c    0.654423 *  0.399038 *  0.227099 *   2.43600    1.000000    
    155 Ti    c    0.571067 *  0.232376 *  0.229334 *   2.43600    1.000000    
    156 Ti    c    0.487745 *  0.399055 *  0.227124 *   2.43600    1.000000    
    157 Ti    c    0.404412 *  0.232394 *  0.229374 *   2.43600    1.000000    
    158 Ti    c    0.321109 *  0.399066 *  0.227169 *   2.43600    1.000000    
    159 Ti    c    0.237648 *  0.899103 *  0.229634 *   2.43600    1.000000    
    160 Ti    c    0.154476 *  0.065709 *  0.227328 *   2.43600    1.000000    
    161 Ti    c    0.071292 *  0.899100 *  0.229611 *   2.43600    1.000000    
    162 Ti    c    0.987901 *  0.065713 *  0.227296 *   2.43600    1.000000    
    163 Ti    c    0.904714 *  0.899129 *  0.229407 *   2.43600    1.000000    
    164 Ti    c    0.821208 *  0.065717 *  0.227232 *   2.43600    1.000000    
    165 Ti    c    0.737868 *  0.899142 *  0.229262 *   2.43600    1.000000    
    166 Ti    c    0.654427 *  0.065720 *  0.227201 *   2.43600    1.000000    
    167 Ti    c    0.570961 *  0.899121 *  0.229286 *   2.43600    1.000000    
    168 Ti    c    0.487674 *  0.065713 *  0.227237 *   2.43600    1.000000    
    169 Ti    c    0.404172 *  0.899110 *  0.229454 *   2.43600    1.000000    
    170 Ti    c    0.321030 *  0.065709 *  0.227301 *   2.43600    1.000000    
    171 Ti    c    0.237851 *  0.565777 *  0.229298 *   2.43600    1.000000    
    172 Ti    c    0.154487 *  0.732502 *  0.227160 *   2.43600    1.000000    
    173 Ti    c    0.071190 *  0.565762 *  0.229250 *   2.43600    1.000000    
    174 Ti    c    0.987906 *  0.732509 *  0.227081 *   2.43600    1.000000    
    175 Ti    c    0.904461 *  0.565748 *  0.229198 *   2.43600    1.000000    
    176 Ti    c    0.821191 *  0.732512 *  0.226976 *   2.43600    1.000000    
    177 Ti    c    0.737695 *  0.565767 *  0.229220 *   2.43600    1.000000    
    178 Ti    c    0.654393 *  0.732514 *  0.226957 *   2.43600    1.000000    
    179 Ti    c    0.571055 *  0.565782 *  0.229298 *   2.43600    1.000000    
    180 Ti    c    0.487650 *  0.732515 *  0.227047 *   2.43600    1.000000    
    181 O2    c    0.402985 *  0.731079 *  0.348480 *  -1.21800    1.000000    
    182 O2    c    0.238290 *  0.399867 *  0.348857 *  -1.21800    1.000000    
    183 O2    c    0.070993 *  0.400165 *  0.348760 *  -1.21800    1.000000    
    184 O2    c    0.903843 *  0.400756 *  0.348788 *  -1.21800    1.000000    
    185 O2    c    0.733877 *  0.402787 *  0.348404 *  -1.21800    1.000000    
    186 O3    c    0.576920 *  0.230673 *  0.354722 *  -0.33800    1.000000    
    187 H22   c    0.576136 *  0.199885 *  0.361311 *   0.12000    1.000000    
    188 O2    c    0.408093 *  0.399681 *  0.348631 *  -1.21800    1.000000    
    189 O2    c    0.237252 *  0.070909 *  0.348473 *  -1.21800    1.000000    
    190 O2    c    0.071901 *  0.070172 *  0.348486 *  -1.21800    1.000000    
    191 O2    c    0.904250 *  0.067853 *  0.348687 *  -1.21800    1.000000    
    192 O2    c    0.737676 *  0.062734 *  0.348567 *  -1.21800    1.000000    
    193 O2    c    0.571265 *  0.067127 *  0.348569 *  -1.21800    1.000000    
    194 O2    c    0.404772 *  0.067463 *  0.348699 *  -1.21800    1.000000    
    195 O2    c    0.237543 *  0.727778 *  0.348154 *  -1.21800    1.000000    
    196 O2    c    0.071853 *  0.727505 *  0.348561 *  -1.21800    1.000000    
    197 O2    c    0.899713 *  0.730533 *  0.348144 *  -1.21800    1.000000    
    198 O3    c    0.737597 *  0.732535 *  0.348809 *  -0.33800    1.000000    
    199 H22   c    0.737154 *  0.732138 *  0.357234 *   0.12000    1.000000    
    200 O2    c    0.575031 *  0.732805 *  0.348037 *  -1.21800    1.000000    
    201 O2    c    0.154429 *  0.173031 *  0.338847 *  -1.21800    1.000000    
    202 O2    c    0.986496 *  0.172907 *  0.339169 *  -1.21800    1.000000    
    203 O2    c    0.819952 *  0.172456 *  0.339236 *  -1.21800    1.000000    
    204 O2    c    0.656399 *  0.171583 *  0.338950 *  -1.21800    1.000000    
    205 O2    c    0.487387 *  0.172276 *  0.338951 *  -1.21800    1.000000    
    206 O2    c    0.322661 *  0.173234 *  0.339141 *  -1.21800    1.000000    
    207 O2    c    0.153724 *  0.833407 *  0.337404 *  -1.21800    1.000000    
    208 O2    c    0.983171 *  0.835547 *  0.339231 *  -1.21800    1.000000    
    209 O2    c    0.817511 *  0.834957 *  0.339276 *  -1.21800    1.000000    
    210 O2    c    0.657672 *  0.834919 *  0.339166 *  -1.21800    1.000000    
    211 O2    c    0.488827 *  0.837326 *  0.339366 *  -1.21800    1.000000    
    212 O2    c    0.323936 *  0.836423 *  0.338675 *  -1.21800    1.000000    
    213 O2    c    0.987258 *  0.505655 *  0.339141 *  -1.21800    1.000000    
    214 O2    c    0.484339 *  0.501934 *  0.337997 *  -1.21800    1.000000    
    215 O2    c    0.321591 *  0.505070 *  0.339322 *  -1.21800    1.000000    
    216 O2    c    0.154457 *  0.505446 *  0.339217 *  -1.21800    1.000000    
    217 O2    c    0.821198 *  0.506313 *  0.339260 *  -1.21800    1.000000    
    218 O2    c    0.658593 *  0.501936 *  0.337381 *  -1.21800    1.000000    
    219 O2    c    0.322101 *  0.626229 *  0.338745 *  -1.21800    1.000000    
    220 O2    c    0.154513 *  0.293730 *  0.339347 *  -1.21800    1.000000    
    221 O2    c    0.987092 *  0.293929 *  0.339321 *  -1.21800    1.000000    
    222 O2    c    0.820132 *  0.294091 *  0.339567 *  -1.21800    1.000000    
    223 O2    c    0.653903 *  0.295762 *  0.339140 *  -1.21800    1.000000    
    224 O2    c    0.490124 *  0.295830 *  0.339352 *  -1.21800    1.000000    
    225 O2    c    0.321918 *  0.294177 *  0.339483 *  -1.21800    1.000000    
    226 O2    c    0.984652 *  0.961604 *  0.339018 *  -1.21800    1.000000    
    227 O2    c    0.488596 *  0.959146 *  0.339291 *  -1.21800    1.000000    
    228 O2    c    0.324221 *  0.961983 *  0.338969 *  -1.21800    1.000000    
    229 O2    c    0.154063 *  0.626021 *  0.338711 *  -1.21800    1.000000    
    230 O2    c    0.985461 *  0.626606 *  0.339231 *  -1.21800    1.000000    
    231 O2    c    0.818001 *  0.629402 *  0.339096 *  -1.21800    1.000000    
    232 O2    c    0.659530 *  0.629616 *  0.339280 *  -1.21800    1.000000    
    233 O2    c    0.488294 *  0.626797 *  0.339347 *  -1.21800    1.000000    
    234 O2    c    0.154198 *  0.965051 *  0.337391 *  -1.21800    1.000000    
    235 O2    c    0.821460 *  0.958298 *  0.339295 *  -1.21800    1.000000    
    236 O2    c    0.653541 *  0.957849 *  0.339228 *  -1.21800    1.000000    
    237 O2    c    0.405907 *  0.731432 *  0.327730 *  -1.21800    1.000000    
    238 O2    c    0.238121 *  0.399414 *  0.328113 *  -1.21800    1.000000    
    239 O2    c    0.070650 *  0.399427 *  0.328059 *  -1.21800    1.000000    
    240 O2    c    0.903557 *  0.399514 *  0.328090 *  -1.21800    1.000000    
    241 O2    c    0.740161 *  0.397144 *  0.327713 *  -1.21800    1.000000    
    242 O2    c    0.571003 *  0.396568 *  0.328315 *  -1.21800    1.000000    
    243 O2    c    0.403551 *  0.397288 *  0.327858 *  -1.21800    1.000000    
    244 O2    c    0.239810 *  0.069423 *  0.327802 *  -1.21800    1.000000    
    245 O2    c    0.068805 *  0.069378 *  0.327811 *  -1.21800    1.000000    
    246 O2    c    0.902501 *  0.066452 *  0.327976 *  -1.21800    1.000000    
    247 O2    c    0.737692 *  0.064209 *  0.327980 *  -1.21800    1.000000    
    248 O2    c    0.571956 *  0.065262 *  0.327963 *  -1.21800    1.000000    
    249 O2    c    0.406199 *  0.066038 *  0.327937 *  -1.21800    1.000000    
    250 O2    c    0.238814 *  0.729460 *  0.327493 *  -1.21800    1.000000    
    251 O2    c    0.068558 *  0.729155 *  0.327800 *  -1.21800    1.000000    
    252 O2    c    0.905673 *  0.731645 *  0.327356 *  -1.21800    1.000000    
    253 O2    c    0.737764 *  0.732200 *  0.328829 *  -1.21800    1.000000    
    254 O2    c    0.568717 *  0.733146 *  0.327393 *  -1.21800    1.000000    
    255 O2    c    0.403574 *  0.566521 *  0.321320 *  -1.21800    1.000000    
    256 O2    c    0.238356 *  0.233626 *  0.321509 *  -1.21800    1.000000    
    257 O2    c    0.070515 *  0.233477 *  0.321495 *  -1.21800    1.000000    
    258 O2    c    0.903485 *  0.233339 *  0.321523 *  -1.21800    1.000000    
    259 O2    c    0.738020 *  0.233648 *  0.321485 *  -1.21800    1.000000    
    260 O2    c    0.571687 *  0.232753 *  0.321646 *  -1.21800    1.000000    
    261 O2    c    0.405017 *  0.234062 *  0.321537 *  -1.21800    1.000000    
    262 O2    c    0.240889 *  0.899206 *  0.322076 *  -1.21800    1.000000    
    263 O2    c    0.066959 *  0.898715 *  0.322166 *  -1.21800    1.000000    
    264 O2    c    0.901381 *  0.897721 *  0.321558 *  -1.21800    1.000000    
    265 O2    c    0.737387 *  0.898682 *  0.321360 *  -1.21800    1.000000    
    266 O2    c    0.572206 *  0.897486 *  0.321472 *  -1.21800    1.000000    
    267 O2    c    0.407265 *  0.898804 *  0.321486 *  -1.21800    1.000000    
    268 O2    c    0.237935 *  0.565130 *  0.321333 *  -1.21800    1.000000    
    269 O2    c    0.070103 *  0.565769 *  0.321384 *  -1.21800    1.000000    
    270 O2    c    0.903310 *  0.566654 *  0.321381 *  -1.21800    1.000000    
    271 O2    c    0.739925 *  0.567320 *  0.321189 *  -1.21800    1.000000    
    272 O2    c    0.572017 *  0.567481 *  0.322100 *  -1.21800    1.000000    
    273 O2    c    0.321300 *  0.666737 *  0.310648 *  -1.21800    1.000000    
    274 O2    c    0.321375 *  0.464536 *  0.310964 *  -1.21800    1.000000    
    275 O2    c    0.154337 *  0.333972 *  0.311101 *  -1.21800    1.000000    
    276 O2    c    0.154383 *  0.131907 *  0.310951 *  -1.21800    1.000000    
    277 O2    c    0.987394 *  0.333979 *  0.311086 *  -1.21800    1.000000    
    278 O2    c    0.986858 *  0.131939 *  0.310924 *  -1.21800    1.000000    
    279 O2    c    0.821409 *  0.333668 *  0.310840 *  -1.21800    1.000000    
    280 O2    c    0.820424 *  0.131546 *  0.311053 *  -1.21800    1.000000    
    281 O2    c    0.654452 *  0.334025 *  0.311173 *  -1.21800    1.000000    
    282 O2    c    0.654708 *  0.131318 *  0.311117 *  -1.21800    1.000000    
    283 O2    c    0.488335 *  0.333951 *  0.311101 *  -1.21800    1.000000    
    284 O2    c    0.488433 *  0.131536 *  0.311059 *  -1.21800    1.000000    
    285 O2    c    0.321017 *  0.333826 *  0.310910 *  -1.21800    1.000000    
    286 O2    c    0.322067 *  0.131946 *  0.310909 *  -1.21800    1.000000    
    287 O2    c    0.154204 *  0.001085 *  0.311288 *  -1.21800    1.000000    
    288 O2    c    0.154074 *  0.797424 *  0.311143 *  -1.21800    1.000000    
    289 O2    c    0.986541 *  0.000590 *  0.311081 *  -1.21800    1.000000    
    290 O2    c    0.987321 *  0.797703 *  0.310755 *  -1.21800    1.000000    
    291 O2    c    0.820596 *  0.000031 *  0.310981 *  -1.21800    1.000000    
    292 O2    c    0.819980 *  0.796709 *  0.311248 *  -1.21800    1.000000    
    293 O2    c    0.654588 *  0.999822 *  0.311011 *  -1.21800    1.000000    
    294 O2    c    0.655119 *  0.796696 *  0.311249 *  -1.21800    1.000000    
    295 O2    c    0.488847 *  0.000111 *  0.310978 *  -1.21800    1.000000    
    296 O2    c    0.487957 *  0.797830 *  0.310594 *  -1.21800    1.000000    
    297 O2    c    0.321886 *  0.000719 *  0.311036 *  -1.21800    1.000000    
    298 O2    c    0.321744 *  0.797483 *  0.310930 *  -1.21800    1.000000    
    299 O2    c    0.154112 *  0.666586 *  0.310759 *  -1.21800    1.000000    
    300 O2    c    0.154170 *  0.464641 *  0.311075 *  -1.21800    1.000000    
    301 O2    c    0.987372 *  0.666432 *  0.310556 *  -1.21800    1.000000    
    302 O2    c    0.987082 *  0.464817 *  0.311066 *  -1.21800    1.000000    
    303 O2    c    0.820555 *  0.667983 *  0.311086 *  -1.21800    1.000000    
    304 O2    c    0.820947 *  0.464910 *  0.310902 *  -1.21800    1.000000    
    305 O2    c    0.654980 *  0.667923 *  0.311412 *  -1.21800    1.000000    
    306 O2    c    0.654491 *  0.463845 *  0.311310 *  -1.21800    1.000000    
    307 O2    c    0.487983 *  0.666581 *  0.310722 *  -1.21800    1.000000    
    308 O2    c    0.488785 *  0.463986 *  0.311298 *  -1.21800    1.000000    
    309 O2    c    0.405688 *  0.564755 *  0.300117 *  -1.21800    1.000000    
    310 O2    c    0.237754 *  0.232793 *  0.300136 *  -1.21800    1.000000    
    311 O2    c    0.071046 *  0.233032 *  0.300136 *  -1.21800    1.000000    
    312 O2    c    0.904382 *  0.232633 *  0.300100 *  -1.21800    1.000000    
    313 O2    c    0.737399 *  0.232805 *  0.300119 *  -1.21800    1.000000    
    314 O2    c    0.571353 *  0.232912 *  0.300195 *  -1.21800    1.000000    
    315 O2    c    0.405035 *  0.232966 *  0.300156 *  -1.21800    1.000000    
    316 O2    c    0.236635 *  0.899082 *  0.300682 *  -1.21800    1.000000    
    317 O2    c    0.071997 *  0.899497 *  0.300688 *  -1.21800    1.000000    
    318 O2    c    0.904711 *  0.898293 *  0.300218 *  -1.21800    1.000000    
    319 O2    c    0.737683 *  0.897799 *  0.300036 *  -1.21800    1.000000    
    320 O2    c    0.571471 *  0.898316 *  0.300048 *  -1.21800    1.000000    
    321 O2    c    0.403750 *  0.899313 *  0.300199 *  -1.21800    1.000000    
    322 O2    c    0.237628 *  0.565392 *  0.299988 *  -1.21800    1.000000    
    323 O2    c    0.071097 *  0.565071 *  0.299993 *  -1.21800    1.000000    
    324 O2    c    0.904303 *  0.566166 *  0.299941 *  -1.21800    1.000000    
    325 O2    c    0.736512 *  0.566287 *  0.300075 *  -1.21800    1.000000    
    326 O2    c    0.571629 *  0.565477 *  0.300406 *  -1.21800    1.000000    
    327 O2    c    0.405009 *  0.732172 *  0.294158 *  -1.21800    1.000000    
    328 O2    c    0.237779 *  0.399366 *  0.294377 *  -1.21800    1.000000    
    329 O2    c    0.070845 *  0.399315 *  0.294386 *  -1.21800    1.000000    
    330 O2    c    0.904178 *  0.399417 *  0.294335 *  -1.21800    1.000000    
    331 O2    c    0.737397 *  0.399243 *  0.294232 *  -1.21800    1.000000    
    332 O2    c    0.571470 *  0.399192 *  0.294278 *  -1.21800    1.000000    
    333 O2    c    0.405122 *  0.399236 *  0.294305 *  -1.21800    1.000000    
    334 O2    c    0.237881 *  0.066071 *  0.294407 *  -1.21800    1.000000    
    335 O2    c    0.070834 *  0.066038 *  0.294413 *  -1.21800    1.000000    
    336 O2    c    0.903891 *  0.065988 *  0.294387 *  -1.21800    1.000000    
    337 O2    c    0.737568 *  0.065694 *  0.294365 *  -1.21800    1.000000    
    338 O2    c    0.571533 *  0.065888 *  0.294368 *  -1.21800    1.000000    
    339 O2    c    0.405056 *  0.065939 *  0.294382 *  -1.21800    1.000000    
    340 O2    c    0.237711 *  0.732365 *  0.294203 *  -1.21800    1.000000    
    341 O2    c    0.070721 *  0.732223 *  0.294221 *  -1.21800    1.000000    
    342 O2    c    0.903341 *  0.732364 *  0.294049 *  -1.21800    1.000000    
    343 O2    c    0.737522 *  0.732243 *  0.294086 *  -1.21800    1.000000    
    344 O2    c    0.572177 *  0.732181 *  0.294064 *  -1.21800    1.000000    
    345 O2    c    0.321362 *  0.500924 *  0.283537 *  -1.21800    1.000000    
    346 O2    c    0.321458 *  0.630339 *  0.283529 *  -1.21800    1.000000    
    347 O2    c    0.154394 *  0.167812 *  0.283572 *  -1.21800    1.000000    
    348 O2    c    0.154426 *  0.297427 *  0.283554 *  -1.21800    1.000000    
    349 O2    c    0.987608 *  0.167761 *  0.283564 *  -1.21800    1.000000    
    350 O2    c    0.987589 *  0.297401 *  0.283551 *  -1.21800    1.000000    
    351 O2    c    0.820900 *  0.167726 *  0.283587 *  -1.21800    1.000000    
    352 O2    c    0.820975 *  0.297336 *  0.283547 *  -1.21800    1.000000    
    353 O2    c    0.654467 *  0.167681 *  0.283579 *  -1.21800    1.000000    
    354 O2    c    0.654455 *  0.297366 *  0.283532 *  -1.21800    1.000000    
    355 O2    c    0.488076 *  0.167722 *  0.283591 *  -1.21800    1.000000    
    356 O2    c    0.488064 *  0.297382 *  0.283547 *  -1.21800    1.000000    
    357 O2    c    0.321370 *  0.167815 *  0.283603 *  -1.21800    1.000000    
    358 O2    c    0.321303 *  0.297388 *  0.283577 *  -1.21800    1.000000    
    359 O2    c    0.154290 *  0.834011 *  0.283623 *  -1.21800    1.000000    
    360 O2    c    0.154392 *  0.964232 *  0.283686 *  -1.21800    1.000000    
    361 O2    c    0.987860 *  0.834161 *  0.283638 *  -1.21800    1.000000    
    362 O2    c    0.987773 *  0.963886 *  0.283760 *  -1.21800    1.000000    
    363 O2    c    0.821042 *  0.834100 *  0.283512 *  -1.21800    1.000000    
    364 O2    c    0.821068 *  0.963633 *  0.283662 *  -1.21800    1.000000    
    365 O2    c    0.654547 *  0.834070 *  0.283428 *  -1.21800    1.000000    
    366 O2    c    0.654519 *  0.963677 *  0.283573 *  -1.21800    1.000000    
    367 O2    c    0.487855 *  0.834208 *  0.283517 *  -1.21800    1.000000    
    368 O2    c    0.487921 *  0.963752 *  0.283629 *  -1.21800    1.000000    
    369 O2    c    0.320892 *  0.834187 *  0.283662 *  -1.21800    1.000000    
    370 O2    c    0.320871 *  0.963969 *  0.283720 *  -1.21800    1.000000    
    371 O2    c    0.154408 *  0.500890 *  0.283443 *  -1.21800    1.000000    
    372 O2    c    0.154374 *  0.630476 *  0.283425 *  -1.21800    1.000000    
    373 O2    c    0.987545 *  0.501003 *  0.283466 *  -1.21800    1.000000    
    374 O2    c    0.987515 *  0.630558 *  0.283393 *  -1.21800    1.000000    
    375 O2    c    0.820823 *  0.501147 *  0.283571 *  -1.21800    1.000000    
    376 O2    c    0.820737 *  0.630510 *  0.283485 *  -1.21800    1.000000    
    377 O2    c    0.654314 *  0.500876 *  0.283533 *  -1.21800    1.000000    
    378 O2    c    0.654331 *  0.630672 *  0.283457 *  -1.21800    1.000000    
    379 O2    c    0.488325 *  0.500800 *  0.283534 *  -1.21800    1.000000    
    380 O2    c    0.488311 *  0.630563 *  0.283493 *  -1.21800    1.000000    
    381 O2    c    0.404323 *  0.732370 *  0.272600 *  -1.21800    1.000000    
    382 O2    c    0.237809 *  0.399142 *  0.272739 *  -1.21800    1.000000    
    383 O2    c    0.071041 *  0.399141 *  0.272739 *  -1.21800    1.000000    
    384 O2    c    0.904403 *  0.399297 *  0.272702 *  -1.21800    1.000000    
    385 O2    c    0.737940 *  0.399249 *  0.272644 *  -1.21800    1.000000    
    386 O2    c    0.571150 *  0.399006 *  0.272636 *  -1.21800    1.000000    
    387 O2    c    0.404392 *  0.399120 *  0.272695 *  -1.21800    1.000000    
    388 O2    c    0.237876 *  0.066156 *  0.272824 *  -1.21800    1.000000    
    389 O2    c    0.070976 *  0.066022 *  0.272824 *  -1.21800    1.000000    
    390 O2    c    0.904376 *  0.065633 *  0.272798 *  -1.21800    1.000000    
    391 O2    c    0.737827 *  0.065558 *  0.272759 *  -1.21800    1.000000    
    392 O2    c    0.571171 *  0.065573 *  0.272758 *  -1.21800    1.000000    
    393 O2    c    0.404522 *  0.065715 *  0.272799 *  -1.21800    1.000000    
    394 O2    c    0.237848 *  0.731989 *  0.272653 *  -1.21800    1.000000    
    395 O2    c    0.071115 *  0.732115 *  0.272618 *  -1.21800    1.000000    
    396 O2    c    0.904562 *  0.732314 *  0.272520 *  -1.21800    1.000000    
    397 O2    c    0.737817 *  0.732380 *  0.272460 *  -1.21800    1.000000    
    398 O2    c    0.570901 *  0.732604 *  0.272495 *  -1.21800    1.000000    
    399 O2    c    0.404612 *  0.565725 *  0.267003 *  -1.21800    1.000000    
    400 O2    c    0.237862 *  0.232580 *  0.267047 *  -1.21800    1.000000    
    401 O2    c    0.070982 *  0.232603 *  0.267033 *  -1.21800    1.000000    
    402 O2    c    0.904247 *  0.232527 *  0.267002 *  -1.21800    1.000000    
    403 O2    c    0.737740 *  0.232513 *  0.266990 *  -1.21800    1.000000    
    404 O2    c    0.571257 *  0.232494 *  0.267015 *  -1.21800    1.000000    
    405 O2    c    0.404629 *  0.232546 *  0.267039 *  -1.21800    1.000000    
    406 O2    c    0.237985 *  0.899018 *  0.267340 *  -1.21800    1.000000    
    407 O2    c    0.070713 *  0.899081 *  0.267328 *  -1.21800    1.000000    
    408 O2    c    0.904025 *  0.899001 *  0.267086 *  -1.21800    1.000000    
    409 O2    c    0.737713 *  0.898982 *  0.266929 *  -1.21800    1.000000    
    410 O2    c    0.571342 *  0.898995 *  0.266944 *  -1.21800    1.000000    
    411 O2    c    0.404815 *  0.899029 *  0.267118 *  -1.21800    1.000000    
    412 O2    c    0.237845 *  0.565736 *  0.266936 *  -1.21800    1.000000    
    413 O2    c    0.070894 *  0.565743 *  0.266899 *  -1.21800    1.000000    
    414 O2    c    0.904146 *  0.565790 *  0.266859 *  -1.21800    1.000000    
    415 O2    c    0.737860 *  0.565789 *  0.266920 *  -1.21800    1.000000    
    416 O2    c    0.571354 *  0.565761 *  0.267021 *  -1.21800    1.000000    
    417 O2    c    0.321198 *  0.666805 *  0.255971 *  -1.21800    1.000000    
    418 O2    c    0.321189 *  0.464619 *  0.256031 *  -1.21800    1.000000    
    419 O2    c    0.154426 *  0.333623 *  0.256068 *  -1.21800    1.000000    
    420 O2    c    0.154426 *  0.131395 *  0.256129 *  -1.21800    1.000000    
    421 O2    c    0.987681 *  0.333623 *  0.256053 *  -1.21800    1.000000    
    422 O2    c    0.987675 *  0.131358 *  0.256115 *  -1.21800    1.000000    
    423 O2    c    0.821072 *  0.333611 *  0.256027 *  -1.21800    1.000000    
    424 O2    c    0.821059 *  0.131290 *  0.256104 *  -1.21800    1.000000    
    425 O2    c    0.654490 *  0.333604 *  0.256024 *  -1.21800    1.000000    
    426 O2    c    0.654470 *  0.131253 *  0.256099 *  -1.21800    1.000000    
    427 O2    c    0.487839 *  0.333590 *  0.256034 *  -1.21800    1.000000    
    428 O2    c    0.487869 *  0.131282 *  0.256111 *  -1.21800    1.000000    
    429 O2    c    0.321163 *  0.333597 *  0.256053 *  -1.21800    1.000000    
    430 O2    c    0.321221 *  0.131362 *  0.256120 *  -1.21800    1.000000    
    431 O2    c    0.154426 *  0.000282 *  0.256251 *  -1.21800    1.000000    
    432 O2    c    0.154427 *  0.797890 *  0.256129 *  -1.21800    1.000000    
    433 O2    c    0.987697 *  0.000236 *  0.256183 *  -1.21800    1.000000    
    434 O2    c    0.987747 *  0.797908 *  0.256041 *  -1.21800    1.000000    
    435 O2    c    0.821075 *  0.000198 *  0.256089 *  -1.21800    1.000000    
    436 O2    c    0.821081 *  0.797875 *  0.255941 *  -1.21800    1.000000    
    437 O2    c    0.654498 *  0.000194 *  0.256056 *  -1.21800    1.000000    
    438 O2    c    0.654469 *  0.797885 *  0.255908 *  -1.21800    1.000000    
    439 O2    c    0.487857 *  0.000197 *  0.256100 *  -1.21800    1.000000    
    440 O2    c    0.487773 *  0.797932 *  0.255954 *  -1.21800    1.000000    
    441 O2    c    0.321149 *  0.000241 *  0.256194 *  -1.21800    1.000000    
    442 O2    c    0.321119 *  0.797905 *  0.256073 *  -1.21800    1.000000    
    443 O2    c    0.154421 *  0.666793 *  0.255955 *  -1.21800    1.000000    
    444 O2    c    0.154416 *  0.464619 *  0.256027 *  -1.21800    1.000000    
    445 O2    c    0.987697 *  0.666845 *  0.255911 *  -1.21800    1.000000    
    446 O2    c    0.987662 *  0.464650 *  0.255999 *  -1.21800    1.000000    
    447 O2    c    0.821043 *  0.666934 *  0.255905 *  -1.21800    1.000000    
    448 O2    c    0.821039 *  0.464661 *  0.255980 *  -1.21800    1.000000    
    449 O2    c    0.654440 *  0.666959 *  0.255937 *  -1.21800    1.000000    
    450 O2    c    0.654479 *  0.464610 *  0.256013 *  -1.21800    1.000000    
    451 O2    c    0.487835 *  0.666883 *  0.255964 *  -1.21800    1.000000    
    452 O2    c    0.487887 *  0.464600 *  0.256035 *  -1.21800    1.000000    
    453 O2    c    0.404662 *  0.565688 *  0.245608 *  -1.21800    1.000000    
    454 O2    c    0.237806 *  0.232515 *  0.245674 *  -1.21800    1.000000    
    455 O2    c    0.071102 *  0.232532 *  0.245661 *  -1.21800    1.000000    
    456 O2    c    0.904410 *  0.232468 *  0.245625 *  -1.21800    1.000000    
    457 O2    c    0.737737 *  0.232404 *  0.245607 *  -1.21800    1.000000    
    458 O2    c    0.571125 *  0.232413 *  0.245626 *  -1.21800    1.000000    
    459 O2    c    0.404512 *  0.232462 *  0.245657 *  -1.21800    1.000000    
    460 O2    c    0.237523 *  0.899103 *  0.245908 *  -1.21800    1.000000    
    461 O2    c    0.071367 *  0.899075 *  0.245889 *  -1.21800    1.000000    
    462 O2    c    0.904813 *  0.899024 *  0.245697 *  -1.21800    1.000000    
    463 O2    c    0.737913 *  0.899002 *  0.245558 *  -1.21800    1.000000    
    464 O2    c    0.570962 *  0.899044 *  0.245578 *  -1.21800    1.000000    
    465 O2    c    0.404049 *  0.899104 *  0.245736 *  -1.21800    1.000000    
    466 O2    c    0.237918 *  0.565650 *  0.245575 *  -1.21800    1.000000    
    467 O2    c    0.071139 *  0.565666 *  0.245530 *  -1.21800    1.000000    
    468 O2    c    0.904327 *  0.565776 *  0.245488 *  -1.21800    1.000000    
    469 O2    c    0.737550 *  0.565864 *  0.245519 *  -1.21800    1.000000    
    470 O2    c    0.571104 *  0.565792 *  0.245593 *  -1.21800    1.000000    
    471 O2    c    0.404599 *  0.732403 *  0.239037 *  -1.21800    1.000000    
    472 O2    c    0.237836 *  0.399085 *  0.239116 *  -1.21800    1.000000    
    473 O2    c    0.071038 *  0.399074 *  0.239112 *  -1.21800    1.000000    
    474 O2    c    0.904318 *  0.399055 *  0.239078 *  -1.21800    1.000000    
    475 O2    c    0.737714 *  0.399058 *  0.239048 *  -1.21800    1.000000    
    476 O2    c    0.571203 *  0.399083 *  0.239051 *  -1.21800    1.000000    
    477 O2    c    0.404602 *  0.399100 *  0.239087 *  -1.21800    1.000000    
    478 O2    c    0.237817 *  0.065742 *  0.239250 *  -1.21800    1.000000    
    479 O2    c    0.071054 *  0.065745 *  0.239247 *  -1.21800    1.000000    
    480 O2    c    0.904345 *  0.065802 *  0.239195 *  -1.21800    1.000000    
    481 O2    c    0.737752 *  0.065831 *  0.239146 *  -1.21800    1.000000    
    482 O2    c    0.571188 *  0.065814 *  0.239149 *  -1.21800    1.000000    
    483 O2    c    0.404555 *  0.065768 *  0.239201 *  -1.21800    1.000000    
    484 O2    c    0.237802 *  0.732469 *  0.239097 *  -1.21800    1.000000    
    485 O2    c    0.070988 *  0.732485 *  0.239062 *  -1.21800    1.000000    
    486 O2    c    0.904262 *  0.732446 *  0.238967 *  -1.21800    1.000000    
    487 O2    c    0.737741 *  0.732387 *  0.238902 *  -1.21800    1.000000    
    488 O2    c    0.571258 *  0.732368 *  0.238944 *  -1.21800    1.000000    
    489 O2    c    0.321220 *  0.505089 *  0.227884 *  -1.21800    1.000000    
    490 O2    c    0.154469 *  0.171755 *  0.228007 *  -1.21800    1.000000    
    491 O2    c    0.987794 *  0.171742 *  0.227972 *  -1.21800    1.000000    
    492 O2    c    0.821111 *  0.171716 *  0.227919 *  -1.21800    1.000000    
    493 O2    c    0.654425 *  0.171702 *  0.227904 *  -1.21800    1.000000    
    494 O2    c    0.487771 *  0.171713 *  0.227937 *  -1.21800    1.000000    
    495 O2    c    0.321134 *  0.171741 *  0.227988 *  -1.21800    1.000000    
    496 O2    c    0.154459 *  0.838380 *  0.228054 *  -1.21800    1.000000    
    497 O2    c    0.988011 *  0.838429 *  0.227969 *  -1.21800    1.000000    
    498 O2    c    0.821299 *  0.838486 *  0.227839 *  -1.21800    1.000000    
    499 O2    c    0.654437 *  0.838506 *  0.227801 *  -1.21800    1.000000    
    500 O2    c    0.487563 *  0.838479 *  0.227894 *  -1.21800    1.000000    
    501 O2    c    0.320883 *  0.838417 *  0.228019 *  -1.21800    1.000000    
    502 O2    c    0.154522 *  0.505080 *  0.227861 *  -1.21800    1.000000    
    503 O2    c    0.987789 *  0.505087 *  0.227835 *  -1.21800    1.000000    
    504 O2    c    0.821022 *  0.505107 *  0.227829 *  -1.21800    1.000000    
    505 O2    c    0.654362 *  0.505093 *  0.227844 *  -1.21800    1.000000    
    506 O2    c    0.487825 *  0.505085 *  0.227872 *  -1.21800    1.000000    
    507 O2    c    0.321223 *  0.626434 *  0.227884 *  -1.21800    1.000000    
    508 O2    c    0.154474 *  0.293087 *  0.227929 *  -1.21800    1.000000    
    509 O2    c    0.987785 *  0.293067 *  0.227906 *  -1.21800    1.000000    
    510 O2    c    0.821101 *  0.293039 *  0.227881 *  -1.21800    1.000000    
    511 O2    c    0.654437 *  0.293028 *  0.227877 *  -1.21800    1.000000    
    512 O2    c    0.487781 *  0.293055 *  0.227901 *  -1.21800    1.000000    
    513 O2    c    0.321131 *  0.293081 *  0.227928 *  -1.21800    1.000000    
    514 O2    c    0.154461 *  0.959820 *  0.228128 *  -1.21800    1.000000    
    515 O2    c    0.988031 *  0.959789 *  0.228071 *  -1.21800    1.000000    
    516 O2    c    0.821310 *  0.959750 *  0.227962 *  -1.21800    1.000000    
    517 O2    c    0.654418 *  0.959743 *  0.227913 *  -1.21800    1.000000    
    518 O2    c    0.487564 *  0.959753 *  0.227973 *  -1.21800    1.000000    
    519 O2    c    0.320879 *  0.959792 *  0.228084 *  -1.21800    1.000000    
    520 O2    c    0.154511 *  0.626412 *  0.227868 *  -1.21800    1.000000    
    521 O2    c    0.987775 *  0.626408 *  0.227801 *  -1.21800    1.000000    
    522 O2    c    0.821032 *  0.626426 *  0.227751 *  -1.21800    1.000000    
    523 O2    c    0.654364 *  0.626467 *  0.227762 *  -1.21800    1.000000    
    524 O2    c    0.487817 *  0.626475 *  0.227830 *  -1.21800    1.000000    
    525 O2    c    0.404180 *  0.732620 *  0.218379 *  -1.21800    1.000000    
    526 O2    c    0.237784 *  0.399064 *  0.218452 *  -1.21800    1.000000    
    527 O2    c    0.071188 *  0.399051 *  0.218450 *  -1.21800    1.000000    
    528 O2    c    0.904530 *  0.399100 *  0.218423 *  -1.21800    1.000000    
    529 O2    c    0.737813 *  0.399059 *  0.218394 *  -1.21800    1.000000    
    530 O2    c    0.571057 *  0.398972 *  0.218393 *  -1.21800    1.000000    
    531 O2    c    0.404372 *  0.399021 *  0.218424 *  -1.21800    1.000000    
    532 O2    c    0.237706 *  0.065878 *  0.218584 *  -1.21800    1.000000    
    533 O2    c    0.071234 *  0.065852 *  0.218583 *  -1.21800    1.000000    
    534 O2    c    0.904656 *  0.065606 *  0.218540 *  -1.21800    1.000000    
    535 O2    c    0.737870 *  0.065523 *  0.218497 *  -1.21800    1.000000    
    536 O2    c    0.570999 *  0.065532 *  0.218498 *  -1.21800    1.000000    
    537 O2    c    0.404250 *  0.065645 *  0.218542 *  -1.21800    1.000000    
    538 O2    c    0.237743 *  0.732336 *  0.218431 *  -1.21800    1.000000    
    539 O2    c    0.071326 *  0.732351 *  0.218401 *  -1.21800    1.000000    
    540 O2    c    0.904712 *  0.732535 *  0.218316 *  -1.21800    1.000000    
    541 O2    c    0.737822 *  0.732679 *  0.218258 *  -1.21800    1.000000    
    542 O2    c    0.570873 *  0.732769 *  0.218292 *  -1.21800    1.000000    
    543 O176  c    0.577934 *  0.528016 *  0.354144 *  -1.08000    1.000000    
    544 O177  c    0.102687 *  0.917368 *  0.415614 *  -1.08000    1.000000    
    545 O176  c    0.574146 *  0.416317 *  0.349835 *  -1.08000    1.000000    
    546 O177  c    0.226828 *  0.917411 *  0.415466 *  -1.08000    1.000000    
    547 O176  c    0.217010 *  0.899668 *  0.354589 *  -1.08000    1.000000    
    548 O177  c    0.648164 *  0.480866 *  0.412778 *  -1.08000    1.000000    
    549 O176  c    0.091944 *  0.899488 *  0.354828 *  -1.08000    1.000000    
    550 O177  c    0.648205 *  0.368271 *  0.411655 *  -1.08000    1.000000    
    551 O171  c    0.163898 *  0.921414 *  0.441081 *  -2.00000    1.000000    
    552 O171  c    0.664746 *  0.421684 *  0.438114 *  -2.00000    1.000000    
    553 O170  c    0.251109 *  0.781087 *  0.447546 *  -1.08000    1.000000    
    554 O170  c    0.012996 *  0.004819 *  0.433831 *  -1.08000    1.000000    
    555 O170  c    0.317365 *  0.838653 *  0.434774 *  -1.08000    1.000000    
    556 O170  c    0.075544 *  0.061339 *  0.447166 *  -1.08000    1.000000    
    557 O170  c    0.315266 *  0.005221 *  0.434130 *  -1.08000    1.000000    
    558 O170  c    0.011261 *  0.838766 *  0.434425 *  -1.08000    1.000000    
    559 O170  c    0.251810 *  0.061343 *  0.447415 *  -1.08000    1.000000    
    560 O170  c    0.076184 *  0.781449 *  0.447390 *  -1.08000    1.000000    
    561 O170  c    0.165864 *  0.978417 *  0.466601 *  -1.08000    1.000000    
    562 O170  c    0.637549 *  0.417266 *  0.526022 *  -1.08000    1.000000    
    563 O170  c    0.166035 *  0.865324 *  0.466547 *  -1.08000    1.000000    
    564 O170  c    0.761451 *  0.417233 *  0.525258 *  -1.08000    1.000000    
    565 O170  c    0.734054 *  0.419190 *  0.463697 *  -1.08000    1.000000    
    566 O170  c    0.199474 *  0.974481 *  0.527125 *  -1.08000    1.000000    
    567 O170  c    0.610445 *  0.419256 *  0.464674 *  -1.08000    1.000000    
    568 O170  c    0.199534 *  0.861546 *  0.526982 *  -1.08000    1.000000    
    569 O170  c    0.514873 *  0.337798 *  0.445674 *  -1.08000    1.000000    
    570 O170  c    0.752260 *  0.560603 *  0.431297 *  -1.08000    1.000000    
    571 O170  c    0.577553 *  0.282090 *  0.432233 *  -1.08000    1.000000    
    572 O170  c    0.816919 *  0.503463 *  0.444331 *  -1.08000    1.000000    
    573 O170  c    0.751873 *  0.284007 *  0.430383 *  -1.08000    1.000000    
    574 O170  c    0.578474 *  0.563172 *  0.433329 *  -1.08000    1.000000    
    575 O170  c    0.816148 *  0.337771 *  0.443871 *  -1.08000    1.000000    
    576 O170  c    0.514423 *  0.503806 *  0.446145 *  -1.08000    1.000000    
    577 O171  c    0.703293 *  0.417267 *  0.551480 *  -2.00000    1.000000    
    578 O171  c    0.204175 *  0.917343 *  0.552681 *  -2.00000    1.000000    
    579 O170  c    0.791027 *  0.278819 *  0.557841 *  -1.08000    1.000000    
    580 O170  c    0.549958 *  0.500390 *  0.545370 *  -1.08000    1.000000    
    581 O170  c    0.855805 *  0.333956 *  0.544581 *  -1.08000    1.000000    
    582 O170  c    0.616643 *  0.555719 *  0.558378 *  -1.08000    1.000000    
    583 O170  c    0.855618 *  0.500697 *  0.544534 *  -1.08000    1.000000    
    584 O170  c    0.549774 *  0.334270 *  0.545407 *  -1.08000    1.000000    
    585 O170  c    0.791206 *  0.555624 *  0.557862 *  -1.08000    1.000000    
    586 O170  c    0.616733 *  0.278791 *  0.558362 *  -1.08000    1.000000    
    587 O170  c    0.707654 *  0.473611 *  0.577254 *  -1.08000    1.000000    
    588 O170  c    0.162832 *  0.916457 *  0.639807 *  -1.08000    1.000000    
    589 O170  c    0.707640 *  0.360769 *  0.577238 *  -1.08000    1.000000    
    590 O170  c    0.286828 *  0.916483 *  0.639257 *  -1.08000    1.000000    
    591 O170  c    0.269013 *  0.916926 *  0.578110 *  -1.08000    1.000000    
    592 O170  c    0.726840 *  0.473121 *  0.638009 *  -1.08000    1.000000    
    593 O170  c    0.144936 *  0.916908 *  0.578634 *  -1.08000    1.000000    
    594 O170  c    0.726813 *  0.360099 *  0.637991 *  -1.08000    1.000000    
    595 O170  c    0.051622 *  0.833501 *  0.559539 *  -1.08000    1.000000    
    596 O170  c    0.291060 *  0.056018 *  0.546058 *  -1.08000    1.000000    
    597 O170  c    0.116512 *  0.778747 *  0.546252 *  -1.08000    1.000000    
    598 O170  c    0.357826 *  0.000246 *  0.558995 *  -1.08000    1.000000    
    599 O170  c    0.291014 *  0.778806 *  0.545896 *  -1.08000    1.000000    
    600 O170  c    0.116529 *  0.056118 *  0.546432 *  -1.08000    1.000000    
    601 O170  c    0.357635 *  0.834129 *  0.558907 *  -1.08000    1.000000    
    602 O170  c    0.051417 *  0.000838 *  0.559628 *  -1.08000    1.000000    
    603 O171  c    0.227754 *  0.916523 *  0.665277 *  -2.00000    1.000000    
    604 O171  c    0.728293 *  0.416544 *  0.663561 *  -2.00000    1.000000    
    605 O170  c    0.315601 *  0.777287 *  0.671447 *  -1.08000    1.000000    
    606 O170  c    0.075113 *  0.999427 *  0.658916 *  -1.08000    1.000000    
    607 O170  c    0.379667 *  0.833614 *  0.658250 *  -1.08000    1.000000    
    608 O170  c    0.140940 *  0.055963 *  0.671874 *  -1.08000    1.000000    
    609 O170  c    0.379625 *  0.999496 *  0.658230 *  -1.08000    1.000000    
    610 O170  c    0.075147 *  0.833588 *  0.658944 *  -1.08000    1.000000    
    611 O170  c    0.315619 *  0.055792 *  0.671437 *  -1.08000    1.000000    
    612 O170  c    0.140948 *  0.777147 *  0.671919 *  -1.08000    1.000000    
    613 O170  c    0.230867 *  0.972894 *  0.690923 *  -1.08000    1.000000    
    614 O173  c    0.669532 *  0.418958 *  0.749247 *  -0.69000    1.000000    
    615 O170  c    0.231061 *  0.859929 *  0.690990 *  -1.08000    1.000000    
    616 O172  c    0.798223 *  0.418693 *  0.749139 *  -0.69000    1.000000    
    617 H21   c    0.795132 *  0.419049 *  0.757464 *   0.22000    1.000000    
    618 O170  c    0.791075 *  0.416529 *  0.689116 *  -1.08000    1.000000    
    619 O173  c    0.242739 *  0.977500 *  0.750799 *  -0.69000    1.000000    
    620 O170  c    0.666877 *  0.416751 *  0.689235 *  -1.08000    1.000000    
    621 O172  c    0.243009 *  0.860311 *  0.751134 *  -0.69000    1.000000    
    622 H21   c    0.244675 *  0.864227 *  0.759443 *   0.22000    1.000000    
    623 O170  c    0.576148 *  0.333225 *  0.670409 *  -1.08000    1.000000    
    624 O170  c    0.815438 *  0.556216 *  0.657318 *  -1.08000    1.000000    
    625 O170  c    0.640689 *  0.277077 *  0.657254 *  -1.08000    1.000000    
    626 O170  c    0.880829 *  0.499391 *  0.670288 *  -1.08000    1.000000    
    627 O170  c    0.815361 *  0.276852 *  0.657296 *  -1.08000    1.000000    
    628 O170  c    0.640730 *  0.556069 *  0.657267 *  -1.08000    1.000000    
    629 O170  c    0.880828 *  0.333664 *  0.670259 *  -1.08000    1.000000    
    630 O170  c    0.576107 *  0.499851 *  0.670404 *  -1.08000    1.000000    
    631 C912  c    0.602956 *  0.507855 *  0.377626 *  -0.07025    1.000000    
    632 C912  c    0.093743 *  0.910419 *  0.391496 *  -0.07025    1.000000    
    633 C912  c    0.601268 *  0.386551 *  0.374947 *  -0.07025    1.000000    
    634 C912  c    0.228694 *  0.910334 *  0.390830 *  -0.07025    1.000000    
    635 C912  c    0.225963 *  0.906783 *  0.378879 *  -0.07025    1.000000    
    636 C912  c    0.617539 *  0.498839 *  0.389316 *  -0.07025    1.000000    
    637 C912  c    0.091047 *  0.906803 *  0.379547 *  -0.07025    1.000000    
    638 C912  c    0.615898 *  0.377580 *  0.386700 *  -0.07025    1.000000    
    639 C916  c    0.581117 *  0.465470 *  0.357357 *   1.07050    1.000000    
    640 C917  c    0.164461 *  0.915910 *  0.410191 *   1.07050    1.000000    
    641 C916  c    0.154987 *  0.901079 *  0.360161 *   1.07050    1.000000    
    642 C917  c    0.641470 *  0.426435 *  0.406910 *   1.07050    1.000000    
    643 C902  c    0.595301 *  0.452020 *  0.370302 *   0.00500    1.000000    
    644 C902  c    0.162471 *  0.912116 *  0.397097 *   0.00500    1.000000    
    645 C902  c    0.157231 *  0.904987 *  0.373269 *   0.00500    1.000000    
    646 C902  c    0.624513 *  0.433790 *  0.393940 *   0.00500    1.000000    
    647 C912  c    0.352778 *  0.669091 *  0.447686 *  -0.07025    1.000000    
    648 C912  c    0.904505 *  0.114718 *  0.431701 *  -0.07025    1.000000    
    649 C912  c    0.427669 *  0.728547 *  0.433768 *  -0.07025    1.000000    
    650 C912  c    0.973689 *  0.174572 *  0.446249 *  -0.07025    1.000000    
    651 C912  c    0.425466 *  0.115254 *  0.432806 *  -0.07025    1.000000    
    652 C912  c    0.903156 *  0.728457 *  0.432565 *  -0.07025    1.000000    
    653 C912  c    0.354234 *  0.173423 *  0.447307 *  -0.07025    1.000000    
    654 C912  c    0.975356 *  0.668022 *  0.446703 *  -0.07025    1.000000    
    655 C912  c    0.179094 *  0.982122 *  0.490989 *  -0.07025    1.000000    
    656 C912  c    0.622498 *  0.417887 *  0.501710 *  -0.07025    1.000000    
    657 C912  c    0.179146 *  0.859060 *  0.490719 *  -0.07025    1.000000    
    658 C912  c    0.756501 *  0.417865 *  0.500125 *  -0.07025    1.000000    
    659 C912  c    0.750215 *  0.418243 *  0.488134 *  -0.07025    1.000000    
    660 C912  c    0.186013 *  0.981134 *  0.502909 *  -0.07025    1.000000    
    661 C912  c    0.616216 *  0.418280 *  0.489725 *  -0.07025    1.000000    
    662 C912  c    0.186032 *  0.858071 *  0.502638 *  -0.07025    1.000000    
    663 C912  c    0.404932 *  0.227497 *  0.447073 *  -0.07025    1.000000    
    664 C912  c    0.853345 *  0.673863 *  0.431968 *  -0.07025    1.000000    
    665 C912  c    0.475827 *  0.169575 *  0.432504 *  -0.07025    1.000000    
    666 C912  c    0.925405 *  0.613517 *  0.446135 *  -0.07025    1.000000    
    667 C912  c    0.854270 *  0.169026 *  0.430984 *  -0.07025    1.000000    
    668 C912  c    0.477786 *  0.674096 *  0.433611 *  -0.07025    1.000000    
    669 C912  c    0.923216 *  0.228639 *  0.445588 *  -0.07025    1.000000    
    670 C912  c    0.403059 *  0.614686 *  0.447556 *  -0.07025    1.000000    
    671 C913  c    0.308001 *  0.785892 *  0.441013 *   1.07050    1.000000    
    672 C913  c    0.020920 *  0.057379 *  0.440153 *   1.07050    1.000000    
    673 C913  c    0.307253 *  0.057332 *  0.440568 *   1.07050    1.000000    
    674 C913  c    0.020427 *  0.785832 *  0.440614 *   1.07050    1.000000    
    675 C913  c    0.168591 *  0.921772 *  0.471895 *   1.07050    1.000000    
    676 C913  c    0.698041 *  0.417366 *  0.520232 *   1.07050    1.000000    
    677 C913  c    0.674113 *  0.418992 *  0.469612 *   1.07050    1.000000    
    678 C913  c    0.196737 *  0.918257 *  0.521722 *   1.07050    1.000000    
    679 C913  c    0.522664 *  0.285796 *  0.439197 *   1.07050    1.000000    
    680 C913  c    0.807985 *  0.556238 *  0.438091 *   1.07050    1.000000    
    681 C913  c    0.807086 *  0.286344 *  0.437319 *   1.07050    1.000000    
    682 C913  c    0.522583 *  0.557322 *  0.440043 *   1.07050    1.000000    
    683 C902  c    0.364508 *  0.726392 *  0.440795 *   0.00500    1.000000    
    684 C902  c    0.964771 *  0.117048 *  0.439331 *   0.00500    1.000000    
    685 C902  c    0.363964 *  0.116774 *  0.440194 *   0.00500    1.000000    
    686 C902  c    0.964693 *  0.725928 *  0.439932 *   0.00500    1.000000    
    687 C902  c    0.175780 *  0.921047 *  0.484948 *   0.00500    1.000000    
    688 C902  c    0.692539 *  0.417710 *  0.506984 *   0.00500    1.000000    
    689 C902  c    0.680136 *  0.418486 *  0.482860 *   0.00500    1.000000    
    690 C902  c    0.189406 *  0.919139 *  0.508676 *   0.00500    1.000000    
    691 C902  c    0.466182 *  0.226172 *  0.439631 *   0.00500    1.000000    
    692 C902  c    0.863889 *  0.616029 *  0.438760 *   0.00500    1.000000    
    693 C902  c    0.862988 *  0.226391 *  0.437957 *   0.00500    1.000000    
    694 C902  c    0.466011 *  0.616722 *  0.440472 *   0.00500    1.000000    
    695 C912  c    0.890805 *  0.168401 *  0.559052 *  -0.07025    1.000000    
    696 C912  c    0.440295 *  0.611692 *  0.544990 *  -0.07025    1.000000    
    697 C912  c    0.967609 *  0.221772 *  0.544693 *  -0.07025    1.000000    
    698 C912  c    0.516665 *  0.667760 *  0.559135 *  -0.07025    1.000000    
    699 C912  c    0.967395 *  0.612813 *  0.544583 *  -0.07025    1.000000    
    700 C912  c    0.440102 *  0.222874 *  0.545083 *  -0.07025    1.000000    
    701 C912  c    0.891175 *  0.666085 *  0.559024 *  -0.07025    1.000000    
    702 C912  c    0.516977 *  0.166795 *  0.559164 *  -0.07025    1.000000    
    703 C912  c    0.715601 *  0.478466 *  0.601673 *  -0.07025    1.000000    
    704 C912  c    0.150734 *  0.916593 *  0.615482 *  -0.07025    1.000000    
    705 C912  c    0.715576 *  0.355477 *  0.601634 *  -0.07025    1.000000    
    706 C912  c    0.285246 *  0.916624 *  0.614415 *  -0.07025    1.000000    
    707 C912  c    0.281009 *  0.916711 *  0.602430 *  -0.07025    1.000000    
    708 C912  c    0.719519 *  0.478325 *  0.613633 *  -0.07025    1.000000    
    709 C912  c    0.146501 *  0.916684 *  0.603496 *  -0.07025    1.000000    
    710 C912  c    0.719489 *  0.355334 *  0.613594 *  -0.07025    1.000000    
    711 C912  c    0.940584 *  0.721053 *  0.559565 *  -0.07025    1.000000    
    712 C912  c    0.390635 *  0.167968 *  0.545345 *  -0.07025    1.000000    
    713 C912  c    0.016883 *  0.667724 *  0.545139 *  -0.07025    1.000000    
    714 C912  c    0.467530 *  0.111854 *  0.559420 *  -0.07025    1.000000    
    715 C912  c    0.390768 *  0.666573 *  0.545213 *  -0.07025    1.000000    
    716 C912  c    0.017050 *  0.166850 *  0.545289 *  -0.07025    1.000000    
    717 C912  c    0.467113 *  0.722631 *  0.559362 *  -0.07025    1.000000    
    718 C912  c    0.940124 *  0.113375 *  0.559621 *  -0.07025    1.000000    
    719 C913  c    0.847471 *  0.282624 *  0.551205 *   1.07050    1.000000    
    720 C913  c    0.559686 *  0.552116 *  0.551839 *   1.07050    1.000000    
    721 C913  c    0.847460 *  0.551934 *  0.551184 *   1.07050    1.000000    
    722 C913  c    0.559635 *  0.282478 *  0.551856 *   1.07050    1.000000    
    723 C913  c    0.709321 *  0.417162 *  0.582607 *   1.07050    1.000000    
    724 C913  c    0.223789 *  0.916496 *  0.634152 *   1.07050    1.000000    
    725 C913  c    0.207973 *  0.916865 *  0.583750 *   1.07050    1.000000    
    726 C913  c    0.725364 *  0.416642 *  0.632655 *   1.07050    1.000000    
    727 C913  c    0.060184 *  0.782199 *  0.552919 *   1.07050    1.000000    
    728 C913  c    0.348061 *  0.052204 *  0.552584 *   1.07050    1.000000    
    729 C913  c    0.347883 *  0.782342 *  0.552456 *   1.07050    1.000000    
    730 C913  c    0.060027 *  0.052347 *  0.553056 *   1.07050    1.000000    
    731 C902  c    0.903831 *  0.222958 *  0.551594 *   0.00500    1.000000    
    732 C902  c    0.503789 *  0.611960 *  0.551955 *   0.00500    1.000000    
    733 C902  c    0.903869 *  0.611586 *  0.551541 *   0.00500    1.000000    
    734 C902  c    0.503801 *  0.222613 *  0.552001 *   0.00500    1.000000    
    735 C902  c    0.713620 *  0.417039 *  0.595713 *   0.00500    1.000000    
    736 C902  c    0.220021 *  0.916572 *  0.620962 *   0.00500    1.000000    
    737 C902  c    0.211721 *  0.916748 *  0.596946 *   0.00500    1.000000    
    738 C902  c    0.721370 *  0.416763 *  0.619552 *   0.00500    1.000000    
    739 C902  c    0.004063 *  0.722320 *  0.552596 *   0.00500    1.000000    
    740 C902  c    0.403862 *  0.112099 *  0.552492 *   0.00500    1.000000    
    741 C902  c    0.403678 *  0.722410 *  0.552382 *   0.00500    1.000000    
    742 C902  c    0.003882 *  0.112180 *  0.552715 *   0.00500    1.000000    
    743 C912  c    0.416595 *  0.665563 *  0.671593 *  -0.07025    1.000000    
    744 C912  c    0.966018 *  0.109623 *  0.657723 *  -0.07025    1.000000    
    745 C912  c    0.490083 *  0.722911 *  0.657247 *  -0.07025    1.000000    
    746 C912  c    0.039912 *  0.168652 *  0.671836 *  -0.07025    1.000000    
    747 C912  c    0.490074 *  0.110208 *  0.657233 *  -0.07025    1.000000    
    748 C912  c    0.966114 *  0.723398 *  0.657751 *  -0.07025    1.000000    
    749 C912  c    0.416637 *  0.167488 *  0.671593 *  -0.07025    1.000000    
    750 C912  c    0.039932 *  0.664405 *  0.671877 *  -0.07025    1.000000    
    751 C912  c    0.235664 *  0.978472 *  0.715342 *  -0.07025    1.000000    
    752 C912  c    0.664715 *  0.417859 *  0.725749 *  -0.07025    1.000000    
    753 C912  c    0.235883 *  0.855549 *  0.715441 *  -0.07025    1.000000    
    754 C912  c    0.799792 *  0.417581 *  0.725413 *  -0.07025    1.000000    
    755 C912  c    0.798378 *  0.417179 *  0.713437 *  -0.07025    1.000000    
    756 C912  c    0.238067 *  0.978835 *  0.727313 *  -0.07025    1.000000    
    757 C912  c    0.663426 *  0.417438 *  0.713772 *  -0.07025    1.000000    
    758 C912  c    0.238296 *  0.855799 *  0.727416 *  -0.07025    1.000000    
    759 C912  c    0.466526 *  0.222144 *  0.671502 *  -0.07025    1.000000    
    760 C912  c    0.916132 *  0.668876 *  0.657497 *  -0.07025    1.000000    
    761 C912  c    0.540077 *  0.164786 *  0.657165 *  -0.07025    1.000000    
    762 C912  c    0.989928 *  0.609873 *  0.671625 *  -0.07025    1.000000    
    763 C912  c    0.916042 *  0.164151 *  0.657470 *  -0.07025    1.000000    
    764 C912  c    0.540096 *  0.668342 *  0.657177 *  -0.07025    1.000000    
    765 C912  c    0.989902 *  0.223176 *  0.671587 *  -0.07025    1.000000    
    766 C912  c    0.466477 *  0.610902 *  0.671497 *  -0.07025    1.000000    
    767 C913  c    0.371393 *  0.781483 *  0.664678 *   1.07050    1.000000    
    768 C913  c    0.084529 *  0.051846 *  0.665227 *   1.07050    1.000000    
    769 C913  c    0.371393 *  0.051609 *  0.664664 *   1.07050    1.000000    
    770 C913  c    0.084566 *  0.781208 *  0.665264 *   1.07050    1.000000    
    771 C913  c    0.231984 *  0.916526 *  0.696309 *   1.07050    1.000000    
    772 C914  c    0.733797 *  0.418594 *  0.744666 *   1.07050    1.000000    
    773 C913  c    0.729203 *  0.416766 *  0.694515 *   1.07050    1.000000    
    774 C914  c    0.241983 *  0.918379 *  0.746442 *   1.07050    1.000000    
    775 C913  c    0.584828 *  0.281025 *  0.664014 *   1.07050    1.000000    
    776 C913  c    0.871604 *  0.551982 *  0.664015 *   1.07050    1.000000    
    777 C913  c    0.871558 *  0.281069 *  0.663988 *   1.07050    1.000000    
    778 C913  c    0.584824 *  0.552080 *  0.664017 *   1.07050    1.000000    
    779 C902  c    0.427767 *  0.721907 *  0.664465 *   0.00500    1.000000    
    780 C902  c    0.028479 *  0.111536 *  0.664902 *   0.00500    1.000000    
    781 C902  c    0.427779 *  0.111178 *  0.664455 *   0.00500    1.000000    
    782 C902  c    0.028534 *  0.721504 *  0.664939 *   0.00500    1.000000    
    783 C902  c    0.234583 *  0.916847 *  0.709437 *   0.00500    1.000000    
    784 C902  c    0.732869 *  0.417978 *  0.731541 *   0.00500    1.000000    
    785 C902  c    0.730272 *  0.417133 *  0.707648 *   0.00500    1.000000    
    786 C902  c    0.239373 *  0.917512 *  0.733322 *   0.00500    1.000000    
    787 C902  c    0.528771 *  0.221211 *  0.664269 *   0.00500    1.000000    
    788 C902  c    0.927580 *  0.611723 *  0.664416 *   0.00500    1.000000    
    789 C902  c    0.927523 *  0.221318 *  0.664386 *   0.00500    1.000000    
    790 C902  c    0.528759 *  0.611883 *  0.664272 *   0.00500    1.000000    
    791 H915  c    0.597688 *  0.559126 *  0.374060 *   0.11250    1.000000    
    792 H915  c    0.042504 *  0.911986 *  0.396618 *   0.11250    1.000000    
    793 H915  c    0.595217 *  0.342149 *  0.369360 *   0.11250    1.000000    
    794 H915  c    0.282119 *  0.911798 *  0.395388 *   0.11250    1.000000    
    795 H915  c    0.277244 *  0.905413 *  0.373771 *   0.11250    1.000000    
    796 H915  c    0.623902 *  0.542627 *  0.395053 *   0.11250    1.000000    
    797 H915  c    0.037631 *  0.905550 *  0.374994 *   0.11250    1.000000    
    798 H915  c    0.621138 *  0.326511 *  0.390353 *   0.11250    1.000000    
    799 H915  c    0.303257 *  0.667516 *  0.453199 *   0.11250    1.000000    
    800 H915  c    0.897359 *  0.069796 *  0.426252 *   0.11250    1.000000    
    801 H915  c    0.437174 *  0.773266 *  0.428358 *   0.11250    1.000000    
    802 H915  c    0.020836 *  0.176534 *  0.452232 *   0.11250    1.000000    
    803 H915  c    0.433425 *  0.071116 *  0.427203 *   0.11250    1.000000    
    804 H915  c    0.894664 *  0.773724 *  0.427247 *   0.11250    1.000000    
    805 H915  c    0.306122 *  0.174659 *  0.453110 *   0.11250    1.000000    
    806 H915  c    0.023584 *  0.666067 *  0.452478 *   0.11250    1.000000    
    807 H915  c    0.176336 *  0.030171 *  0.486257 *   0.11250    1.000000    
    808 H915  c    0.572582 *  0.417750 *  0.507143 *   0.11250    1.000000    
    809 H915  c    0.176410 *  0.811801 *  0.485763 *   0.11250    1.000000    
    810 H915  c    0.811384 *  0.417714 *  0.504260 *   0.11250    1.000000    
    811 H915  c    0.800149 *  0.418399 *  0.482706 *   0.11250    1.000000    
    812 H915  c    0.188776 *  0.028391 *  0.507865 *   0.11250    1.000000    
    813 H915  c    0.561326 *  0.418455 *  0.485592 *   0.11250    1.000000    
    814 H915  c    0.188802 *  0.810025 *  0.507371 *   0.11250    1.000000    
    815 H915  c    0.396968 *  0.271617 *  0.452678 *   0.11250    1.000000    
    816 H915  c    0.805124 *  0.675833 *  0.426194 *   0.11250    1.000000    
    817 H915  c    0.523840 *  0.168370 *  0.426682 *   0.11250    1.000000    
    818 H915  c    0.933900 *  0.568299 *  0.451465 *   0.11250    1.000000    
    819 H915  c    0.807195 *  0.167040 *  0.424989 *   0.11250    1.000000    
    820 H915  c    0.527259 *  0.675625 *  0.428088 *   0.11250    1.000000    
    821 H915  c    0.930299 *  0.273513 *  0.451050 *   0.11250    1.000000    
    822 H915  c    0.393470 *  0.569959 *  0.452960 *   0.11250    1.000000    
    823 H915  c    0.840751 *  0.169498 *  0.564453 *   0.11250    1.000000    
    824 H915  c    0.429944 *  0.568101 *  0.539358 *   0.11250    1.000000    
    825 H915  c    0.978393 *  0.264208 *  0.538833 *   0.11250    1.000000    
    826 H915  c    0.566494 *  0.667759 *  0.564587 *   0.11250    1.000000    
    827 H915  c    0.977917 *  0.570422 *  0.538702 *   0.11250    1.000000    
    828 H915  c    0.429520 *  0.266481 *  0.539465 *   0.11250    1.000000    
    829 H915  c    0.841338 *  0.664976 *  0.564472 *   0.11250    1.000000    
    830 H915  c    0.566988 *  0.166830 *  0.564577 *   0.11250    1.000000    
    831 H915  c    0.714025 *  0.526211 *  0.596841 *   0.11250    1.000000    
    832 H915  c    0.100020 *  0.916549 *  0.620736 *   0.11250    1.000000    
    833 H915  c    0.713981 *  0.307845 *  0.596770 *   0.11250    1.000000    
    834 H915  c    0.339324 *  0.916606 *  0.618797 *   0.11250    1.000000    
    835 H915  c    0.331733 *  0.916762 *  0.597178 *   0.11250    1.000000    
    836 H915  c    0.721073 *  0.525953 *  0.618498 *   0.11250    1.000000    
    837 H915  c    0.092416 *  0.916709 *  0.599117 *   0.11250    1.000000    
    838 H915  c    0.721024 *  0.307593 *  0.618428 *   0.11250    1.000000    
    839 H915  c    0.930038 *  0.763468 *  0.565440 *   0.11250    1.000000    
    840 H915  c    0.340628 *  0.167928 *  0.539931 *   0.11250    1.000000    
    841 H915  c    0.066720 *  0.668834 *  0.539691 *   0.11250    1.000000    
    842 H915  c    0.478128 *  0.068232 *  0.565034 *   0.11250    1.000000    
    843 H915  c    0.340957 *  0.666583 *  0.539758 *   0.11250    1.000000    
    844 H915  c    0.067116 *  0.165758 *  0.539890 *   0.11250    1.000000    
    845 H915  c    0.477470 *  0.766226 *  0.564993 *   0.11250    1.000000    
    846 H915  c    0.929305 *  0.070903 *  0.565473 *   0.11250    1.000000    
    847 H915  c    0.367723 *  0.664872 *  0.677247 *   0.11250    1.000000    
    848 H915  c    0.956878 *  0.064945 *  0.652289 *   0.11250    1.000000    
    849 H915  c    0.499193 *  0.766899 *  0.651653 *   0.11250    1.000000    
    850 H915  c    0.088891 *  0.170022 *  0.677463 *   0.11250    1.000000    
    851 H915  c    0.499165 *  0.066249 *  0.651632 *   0.11250    1.000000    
    852 H915  c    0.957005 *  0.768064 *  0.652312 *   0.11250    1.000000    
    853 H915  c    0.367790 *  0.168149 *  0.677252 *   0.11250    1.000000    
    854 H915  c    0.088885 *  0.663046 *  0.677510 *   0.11250    1.000000    
    855 H915  c    0.234614 *  0.026039 *  0.710453 *   0.11250    1.000000    
    856 H915  c    0.612656 *  0.418127 *  0.730692 *   0.11250    1.000000    
    857 H915  c    0.235000 *  0.807744 *  0.710618 *   0.11250    1.000000    
    858 H915  c    0.852994 *  0.417635 *  0.730050 *   0.11250    1.000000    
    859 H915  c    0.850177 *  0.416903 *  0.708436 *   0.11250    1.000000    
    860 H915  c    0.238951 *  0.026865 *  0.732080 *   0.11250    1.000000    
    861 H915  c    0.610524 *  0.417368 *  0.709056 *   0.11250    1.000000    
    862 H915  c    0.239348 *  0.807947 *  0.732226 *   0.11250    1.000000    
    863 H915  c    0.457399 *  0.266124 *  0.677097 *   0.11250    1.000000    
    864 H915  c    0.867194 *  0.670223 *  0.651861 *   0.11250    1.000000    
    865 H915  c    0.588939 *  0.164122 *  0.651509 *   0.11250    1.000000    
    866 H915  c    0.999060 *  0.565199 *  0.677060 *   0.11250    1.000000    
    867 H915  c    0.867078 *  0.162795 *  0.651840 *   0.11250    1.000000    
    868 H915  c    0.588984 *  0.669037 *  0.651527 *   0.11250    1.000000    
    869 H915  c    0.999059 *  0.267857 *  0.677020 *   0.11250    1.000000    
    870 H915  c    0.457329 *  0.566887 *  0.677084 *   0.11250    1.000000    
    871 Zn172 c    0.163771 *  0.836367 *  0.450809 *   2.00000    1.000000    
    872 Zn172 c    0.070183 *  0.921075 *  0.431238 *   2.00000    1.000000    
    873 Zn172 c    0.258435 *  0.921080 *  0.431268 *   2.00000    1.000000    
    874 Zn172 c    0.163681 *  0.006703 *  0.450760 *   2.00000    1.000000    
    875 Zn172 c    0.760351 *  0.420171 *  0.447552 *   2.00000    1.000000    
    876 Zn172 c    0.662209 *  0.507230 *  0.428723 *   2.00000    1.000000    
    877 Zn172 c    0.573620 *  0.420314 *  0.448802 *   2.00000    1.000000    
    878 Zn172 c    0.661872 *  0.338349 *  0.427752 *   2.00000    1.000000    
    879 Zn172 c    0.704515 *  0.332934 *  0.561371 *   2.00000    1.000000    
    880 Zn172 c    0.607871 *  0.417274 *  0.541984 *   2.00000    1.000000    
    881 Zn172 c    0.796197 *  0.417265 *  0.541248 *   2.00000    1.000000    
    882 Zn172 c    0.704535 *  0.501569 *  0.561385 *   2.00000    1.000000    
    883 Zn172 c    0.299505 *  0.917136 *  0.562246 *   2.00000    1.000000    
    884 Zn172 c    0.203274 *  0.002038 *  0.542942 *   2.00000    1.000000    
    885 Zn172 c    0.110651 *  0.917121 *  0.562775 *   2.00000    1.000000    
    886 Zn172 c    0.203272 *  0.833085 *  0.542798 *   2.00000    1.000000    
    887 Zn172 c    0.228782 *  0.831795 *  0.675099 *   2.00000    1.000000    
    888 Zn172 c    0.132803 *  0.916489 *  0.655701 *   2.00000    1.000000    
    889 Zn172 c    0.320777 *  0.916521 *  0.655129 *   2.00000    1.000000    
    890 Zn172 c    0.228739 *  0.001365 *  0.675072 *   2.00000    1.000000    
    891 Zn172 c    0.822664 *  0.416493 *  0.673311 *   2.00000    1.000000    
    892 Zn172 c    0.728099 *  0.501522 *  0.653826 *   2.00000    1.000000    
    893 Zn172 c    0.634241 *  0.416544 *  0.673442 *   2.00000    1.000000    
    894 Zn172 c    0.728058 *  0.331606 *  0.653809 *   2.00000    1.000000    
--------------------------------------------------------------------------------



  Molecule list generated from bond lengths :

  Total number of molecules =    22

--------------------------------------------------------------------------------
Molecule No./:  Atoms
Periodicity  :  
--------------------------------------------------------------------------------
     1  0    : O3   c   186 H22  c   187
     2  0    : O3   c   198 H22  c   199
     3  0    : O176 c   543 O176 c   545 O177 c   548 O177 c   550 C912 c   631
             : C912 c   633 C912 c   636 C912 c   638 C916 c   639 C917 c   642
             : C902 c   643 C902 c   646 H915 c   791 H915 c   793 H915 c   796
             : H915 c   798
     4  0    : O177 c   544 O177 c   546 O176 c   547 O176 c   549 C912 c   632
             : C912 c   634 C912 c   635 C912 c   637 C917 c   640 C916 c   641
             : C902 c   644 C902 c   645 H915 c   792 H915 c   794 H915 c   795
             : H915 c   797
     5  0    : O170 c   553 O170 c   555 O170 c   574 O170 c   576 C912 c   647
             : C912 c   649 C912 c   668 C912 c   670 C913 c   671 C913 c   682
             : C902 c   683 C902 c   694 H915 c   799 H915 c   801 H915 c   820
             : H915 c   822
     6  0    : O170 c   554 O170 c   556 O170 c   573 O170 c   575 C912 c   648
             : C912 c   650 C912 c   667 C912 c   669 C913 c   672 C913 c   681
             : C902 c   684 C902 c   693 H915 c   800 H915 c   802 H915 c   819
             : H915 c   821
     7  0    : O170 c   557 O170 c   559 O170 c   569 O170 c   571 C912 c   651
             : C912 c   653 C912 c   663 C912 c   665 C913 c   673 C913 c   679
             : C902 c   685 C902 c   691 H915 c   803 H915 c   805 H915 c   815
             : H915 c   817
     8  0    : O170 c   558 O170 c   560 O170 c   570 O170 c   572 C912 c   652
             : C912 c   654 C912 c   664 C912 c   666 C913 c   674 C913 c   680
             : C902 c   686 C902 c   692 H915 c   804 H915 c   806 H915 c   816
             : H915 c   818
     9  0    : O170 c   561 O170 c   563 O170 c   566 O170 c   568 C912 c   655
             : C912 c   657 C912 c   660 C912 c   662 C913 c   675 C913 c   678
             : C902 c   687 C902 c   690 H915 c   807 H915 c   809 H915 c   812
             : H915 c   814
    10  0    : O170 c   562 O170 c   564 O170 c   565 O170 c   567 C912 c   656
             : C912 c   658 C912 c   659 C912 c   661 C913 c   676 C913 c   677
             : C902 c   688 C902 c   689 H915 c   808 H915 c   810 H915 c   811
             : H915 c   813
    11  0    : O170 c   579 O170 c   581 O170 c   600 O170 c   602 C912 c   695
             : C912 c   697 C912 c   716 C912 c   718 C913 c   719 C913 c   730
             : C902 c   731 C902 c   742 H915 c   823 H915 c   825 H915 c   844
             : H915 c   846
    12  0    : O170 c   580 O170 c   582 O170 c   599 O170 c   601 C912 c   696
             : C912 c   698 C912 c   715 C912 c   717 C913 c   720 C913 c   729
             : C902 c   732 C902 c   741 H915 c   824 H915 c   826 H915 c   843
             : H915 c   845
    13  0    : O170 c   583 O170 c   585 O170 c   595 O170 c   597 C912 c   699
             : C912 c   701 C912 c   711 C912 c   713 C913 c   721 C913 c   727
             : C902 c   733 C902 c   739 H915 c   827 H915 c   829 H915 c   839
             : H915 c   841
    14  0    : O170 c   584 O170 c   586 O170 c   596 O170 c   598 C912 c   700
             : C912 c   702 C912 c   712 C912 c   714 C913 c   722 C913 c   728
             : C902 c   734 C902 c   740 H915 c   828 H915 c   830 H915 c   840
             : H915 c   842
    15  0    : O170 c   587 O170 c   589 O170 c   592 O170 c   594 C912 c   703
             : C912 c   705 C912 c   708 C912 c   710 C913 c   723 C913 c   726
             : C902 c   735 C902 c   738 H915 c   831 H915 c   833 H915 c   836
             : H915 c   838
    16  0    : O170 c   588 O170 c   590 O170 c   591 O170 c   593 C912 c   704
             : C912 c   706 C912 c   707 C912 c   709 C913 c   724 C913 c   725
             : C902 c   736 C902 c   737 H915 c   832 H915 c   834 H915 c   835
             : H915 c   837
    17  0    : O170 c   605 O170 c   607 O170 c   628 O170 c   630 C912 c   743
             : C912 c   745 C912 c   764 C912 c   766 C913 c   767 C913 c   778
             : C902 c   779 C902 c   790 H915 c   847 H915 c   849 H915 c   868
             : H915 c   870
    18  0    : O170 c   606 O170 c   608 O170 c   627 O170 c   629 C912 c   744
             : C912 c   746 C912 c   763 C912 c   765 C913 c   768 C913 c   777
             : C902 c   780 C902 c   789 H915 c   848 H915 c   850 H915 c   867
             : H915 c   869
    19  0    : O170 c   609 O170 c   611 O170 c   623 O170 c   625 C912 c   747
             : C912 c   749 C912 c   759 C912 c   761 C913 c   769 C913 c   775
             : C902 c   781 C902 c   787 H915 c   851 H915 c   853 H915 c   863
             : H915 c   865
    20  0    : O170 c   610 O170 c   612 O170 c   624 O170 c   626 C912 c   748
             : C912 c   750 C912 c   760 C912 c   762 C913 c   770 C913 c   776
             : C902 c   782 C902 c   788 H915 c   852 H915 c   854 H915 c   864
             : H915 c   866
    21  0    : O170 c   613 O170 c   615 O173 c   619 O172 c   621 H21  c   622
             : C912 c   751 C912 c   753 C912 c   756 C912 c   758 C913 c   771
[...]
   639 C916  c    -14.911886           0.573669   -2.197776    5.462514
   640 C917  c    -17.602098           0.264986   -0.478791   -6.832870
   641 C916  c    -17.088145          -0.120153    0.473573    6.107923
   642 C917  c    -17.340355          -0.900758    0.386695   -6.970190
   643 C902  c      2.309533          -0.410671    0.440182   -4.188618
   644 C902  c      1.043641          -0.218234    0.234618    3.780735
   645 C902  c      0.993186           0.161617   -0.334989   -3.838798
   646 C902  c      1.519098           0.444502   -0.350980    3.466927
   647 C912  c      1.037448          -1.081875    0.399299    0.513570
   648 C912  c      1.052940           0.275158   -1.176623   -0.513260
   649 C912  c      1.054623          -0.250585    1.185951   -0.461286
   650 C912  c      1.015722           1.036106   -0.435138    0.561920
   651 C912  c      1.035525          -0.264765   -1.178874   -0.465506
   652 C912  c      1.093105           0.260112    1.179311   -0.519729
   653 C912  c      1.026835          -1.076981   -0.408441    0.532840
   654 C912  c      1.038482           1.039426    0.427094    0.542719
   655 C912  c      1.035165          -0.013340    0.692647   -1.048518
   656 C912  c      1.063772          -0.722164    0.006376    1.049171
   657 C912  c      1.033221          -0.010016   -0.690976   -1.046398
   658 C912  c      1.067359           0.732100    0.004355    1.045420
   659 C912  c      1.072986           0.726213   -0.005208   -1.058093
   660 C912  c      1.039856           0.011468    0.692430    1.055120
   661 C912  c      1.068594          -0.728551   -0.003097   -1.051597
   662 C912  c      1.039570           0.014642   -0.691601    1.055894
   663 C912  c      1.059371           0.281002    1.193282    0.480672
   664 C912  c      1.078330          -1.063104   -0.438797   -0.561253
   665 C912  c      1.032917           1.090488    0.425293   -0.523354
   666 C912  c      1.090851          -0.287052   -1.194002    0.505296
   667 C912  c      1.042326          -1.068218    0.447170   -0.560959
   668 C912  c      1.047744           1.091168   -0.417261   -0.512108
   669 C912  c      1.057405          -0.299245    1.176058    0.518563
   670 C912  c      1.080106           0.268389   -1.211257    0.468455
   671 C913  c    -17.557266           4.690800   -5.347905   -0.284057
   672 C913  c    -17.551233          -4.704951    5.333467   -0.431500
   673 C913  c    -17.555718           4.692193    5.338171   -0.310278
   674 C913  c    -17.547323          -4.687861   -5.359117   -0.391212
   675 C913  c    -17.500667           0.071628    0.017286    6.880704
   676 C913  c    -17.481447          -0.005061   -0.036287   -6.986387
   677 C913  c    -17.467317           0.047727    0.029784    6.997947
   678 C913  c    -17.485963          -0.095077    0.001957   -6.894742
   679 C913  c    -17.495619          -4.689848   -5.316169    0.334059
   680 C913  c    -17.467337           4.674312    5.339419    0.373879
   681 C913  c    -17.485516           4.631082   -5.379914    0.277528
   682 C913  c    -17.485888          -4.728651    5.280283    0.400054
   683 C902  c      1.165249          -2.300033    2.708628    0.080761
   684 C902  c      1.150271           2.267436   -2.719957    0.106616
   685 C902  c      1.154285          -2.308830   -2.705461    0.102747
   686 C902  c      1.175697           2.255396    2.724910    0.080130
   687 C902  c      1.241796          -0.035754   -0.001883   -3.738165
   688 C902  c      1.223467           0.009743    0.018326    3.629217
   689 C902  c      1.233645          -0.013391   -0.013674   -3.636423
   690 C902  c      1.252595           0.049038   -0.000955    3.745949
   691 C902  c      1.183736           2.322168    2.720616   -0.098201
   692 C902  c      1.212653          -2.284455   -2.734491   -0.085326
   693 C902  c      1.180959          -2.297982    2.723504   -0.072292
   694 C902  c      1.199861           2.310140   -2.730373   -0.102995
   695 C912  c      1.025921          -1.062362    0.442942    0.467064
   696 C912  c      1.081967           0.251058   -1.187168   -0.562289
   697 C912  c      1.080985          -0.249317    1.188600   -0.559332
   698 C912  c      1.026156           1.059322   -0.445562    0.471578
   699 C912  c      1.081949          -0.250352   -1.187842   -0.560991
   700 C912  c      1.081460           0.250555    1.187458   -0.561734
   701 C912  c      1.026218          -1.061423   -0.443584    0.468479
   702 C912  c      1.025725           1.059230    0.445612    0.471258
   703 C912  c      1.055971          -0.000109    0.699723   -1.051713
   704 C912  c      1.054452          -0.719126    0.000047    1.050833
   705 C912  c      1.055804          -0.000602   -0.699942   -1.051420
   706 C912  c      1.054724           0.719857    0.000702    1.050614
   707 C912  c      1.054541           0.719363   -0.000204   -1.050713
   708 C912  c      1.057175           0.000735    0.699923    1.053293
   709 C912  c      1.054267          -0.719558   -0.000866   -1.050295
   710 C912  c      1.057065           0.000228   -0.699464    1.053575
   711 C912  c      1.081586           0.249753    1.187494    0.560749
   712 C912  c      1.025320          -1.059353   -0.445167   -0.470547
   713 C912  c      1.025677           1.061092    0.443050   -0.468220
   714 C912  c      1.081274          -0.250319   -1.187001    0.561827
   715 C912  c      1.025920          -1.059544    0.444981   -0.471043
   716 C912  c      1.024439           1.061377   -0.442512   -0.466202
   717 C912  c      1.081465          -0.250852    1.186466    0.562293
   718 C912  c      1.081499           0.248383   -1.188792    0.559533
   719 C913  c    -17.518310           4.759467   -5.284251   -0.070991
   720 C913  c    -17.517388          -4.755321    5.288716   -0.083717
   721 C913  c    -17.517523           4.761094    5.283287   -0.074978
   722 C913  c    -17.518162          -4.753531   -5.290147   -0.083869
   723 C913  c    -17.481209           0.003493    0.001754    6.925450
   724 C913  c    -17.489835          -0.000076   -0.003448   -6.971734
   725 C913  c    -17.483249           0.003015    0.002958    6.957228
   726 C913  c    -17.468348          -0.002063   -0.001221   -6.910485
   727 C913  c    -17.520181          -4.762385   -5.285451    0.074989
   728 C913  c    -17.519148           4.754250    5.291657    0.080736
   729 C913  c    -17.518914           4.755258   -5.291212    0.078599
   730 C913  c    -17.520833          -4.763811    5.283713    0.077909
   731 C902  c      1.179808          -2.260535    2.748266   -0.123706
   732 C902  c      1.180085           2.258179   -2.749386   -0.119388
   733 C902  c      1.180210          -2.260617   -2.747544   -0.122771
   734 C902  c      1.179744           2.257588    2.750297   -0.119314
   735 C902  c      1.254967          -0.001759   -0.000645   -3.718065
   736 C902  c      1.225137           0.000670    0.001635    3.655445
   737 C902  c      1.225019          -0.000970   -0.001511   -3.655637
   738 C902  c      1.257900           0.001170    0.000684    3.720607
   739 C902  c      1.179338           2.259740    2.747493    0.122419
   740 C902  c      1.179344          -2.257905   -2.749838    0.120344
   741 C902  c      1.179486          -2.258572    2.748624    0.120730
   742 C902  c      1.178961           2.259137   -2.748781    0.122245
   743 C912  c      1.036367          -1.064790    0.432626    0.517728
   744 C912  c      1.072680           0.269247   -1.186772   -0.512373
   745 C912  c      1.073515          -0.269297    1.186771   -0.511010
   746 C912  c      1.033938           1.064064   -0.432189    0.515824
   747 C912  c      1.070013          -0.270072   -1.186364   -0.513681
   748 C912  c      1.076166           0.269206    1.186406   -0.510483
   749 C912  c      1.029645          -1.064449   -0.433431    0.515489
   750 C912  c      1.041405           1.063881    0.431913    0.519396
   751 C912  c      1.205311           0.003467    0.643922   -0.960934
   752 C912  c      1.413526          -0.525481    0.018192    1.283639
   753 C912  c      1.257484           0.005493   -0.682925   -0.924263
   754 C912  c      1.546471           0.612677    0.017058    1.379546
   755 C912  c      1.254567           0.682943   -0.006341   -0.920191
   756 C912  c      1.411584          -0.014724    0.524505    1.282079
   757 C912  c      1.203225          -0.643951   -0.004209   -0.956804
   758 C912  c      1.545880          -0.013555   -0.613762    1.377824
   759 C912  c      1.064706           0.271905    1.187166    0.506701
   760 C912  c      1.042150          -1.065224   -0.431606   -0.518591
   761 C912  c      1.035992           1.065002    0.432405   -0.521802
   762 C912  c      1.076642          -0.270724   -1.186664    0.510769
   763 C912  c      1.038512          -1.065586    0.431819   -0.519445
   764 C912  c      1.039639           1.065580   -0.431531   -0.520181
   765 C912  c      1.070054          -0.271306    1.187645    0.508636
   766 C912  c      1.070516           0.270733   -1.186548    0.507501
   767 C913  c    -17.513708           4.702160   -5.325753   -0.279983
   768 C913  c    -17.515282          -4.706044    5.322904   -0.275706
   769 C913  c    -17.516187           4.702536    5.324884   -0.274828
   770 C913  c    -17.512546          -4.704131   -5.325456   -0.278871
   771 C913  c    -17.432806          -0.047886    0.009978    6.973083
   772 C914  c    -14.311190           0.588764   -0.053415   -4.514406
   773 C913  c    -17.445240          -0.010400    0.058430    6.964281
   774 C914  c    -14.314123           0.043575   -0.587370   -4.515019
   775 C913  c    -17.514197          -4.706098   -5.323642    0.284008
   776 C913  c    -17.510726           4.707652    5.324998    0.279471
   777 C913  c    -17.512266           4.708267   -5.322623    0.278546
   778 C913  c    -17.513017          -4.704861    5.326445    0.282021
   779 C902  c      1.182621          -2.286300    2.731665    0.033939
   780 C902  c      1.181023           2.286310   -2.731591    0.030091
   781 C902  c      1.178154          -2.287045   -2.731960    0.029743
   782 C902  c      1.185737           2.285455    2.731077    0.034021
   783 C902  c      1.372674           0.022257   -0.020261   -3.602054
   784 C902  c      2.110349           0.084356    0.054967    4.378288
   785 C902  c      1.366579           0.021051   -0.026923   -3.595780
   786 C902  c      2.108154          -0.044290   -0.086836    4.377365
   787 C902  c      1.179449           2.287457    2.732842   -0.037374
   788 C902  c      1.187102          -2.286964   -2.731153   -0.032958
   789 C902  c      1.182884          -2.287577    2.732206   -0.033480
   790 C902  c      1.183357           2.287235   -2.731715   -0.036560
   791 H915  c     -1.201412           0.141809    0.399070    0.123027
   792 H915  c     -2.043120          -0.580359   -0.055141   -0.248099
   793 H915  c     -0.772815          -0.051130   -0.347934   -0.504298
   794 H915  c     -2.121871           0.591565   -0.032930   -0.204976
   795 H915  c     -2.074704           0.610704   -0.036243    0.125862
   796 H915  c     -1.672104          -0.017314    0.578773   -0.408811
   797 H915  c     -2.040760          -0.743785   -0.072020    0.145928
   798 H915  c     -1.511978          -0.041074   -0.466297   -0.356360
   799 H915  c     -1.901272          -0.133737   -0.476443    0.350827
   800 H915  c     -1.835547          -0.377413   -0.122804   -0.369360
   801 H915  c     -1.854482           0.431931    0.112676   -0.346341
   802 H915  c     -1.932799           0.100894    0.473347    0.384723
   803 H915  c     -1.877076           0.418880   -0.113717   -0.346572
   804 H915  c     -1.790430          -0.397260    0.109634   -0.387325
   805 H915  c     -1.907179          -0.129972    0.466076    0.359227
   806 H915  c     -1.916022           0.105444   -0.479664    0.375456
   807 H915  c     -1.931645           0.000384    0.546197    0.280604
   808 H915  c     -1.876612          -0.536317   -0.000432   -0.242367
   809 H915  c     -1.937073           0.002980   -0.548237    0.288190
   810 H915  c     -1.868738           0.534377   -0.001841   -0.239113
   811 H915  c     -1.857974           0.535590    0.000371    0.226931
   812 H915  c     -1.923920          -0.005797    0.546905   -0.276261
   813 H915  c     -1.868362          -0.535050    0.001869    0.240061
   814 H915  c     -1.924788          -0.003444   -0.547097   -0.277327
   815 H915  c     -1.834236          -0.397913    0.126136    0.363252
   816 H915  c     -1.843520          -0.123773    0.469565   -0.403273
   817 H915  c     -1.896162           0.144175   -0.449772   -0.349637
   818 H915  c     -1.791945           0.366855   -0.132460    0.366681
   819 H915  c     -1.876876          -0.138584   -0.423749   -0.374638
   820 H915  c     -1.884918           0.140880    0.485457   -0.360546
   821 H915  c     -1.834696           0.381497    0.111735    0.382360
   822 H915  c     -1.803158          -0.387181   -0.145238    0.348851
   823 H915  c     -1.937625          -0.119501   -0.496093    0.389173
   824 H915  c     -1.788254          -0.373126   -0.132168   -0.352009
   825 H915  c     -1.789837           0.375579    0.133133   -0.349208
   826 H915  c     -1.937439           0.117880    0.494659    0.391109
   827 H915  c     -1.788476           0.374446   -0.132934   -0.350321
   828 H915  c     -1.788874          -0.373425    0.132147   -0.351778
   829 H915  c     -1.937454          -0.118651    0.495626    0.389913
   830 H915  c     -1.938046           0.117975   -0.495073    0.391001
   831 H915  c     -1.903568           0.000454    0.544036    0.270797
   832 H915  c     -1.888842          -0.538067   -0.000542   -0.247952
   833 H915  c     -1.903900           0.000084   -0.543915    0.271154
   834 H915  c     -1.888215           0.537845   -0.000048   -0.247563
   835 H915  c     -1.888345           0.537828    0.000249    0.246471
   836 H915  c     -1.901515           0.000282    0.543132   -0.268140
   837 H915  c     -1.889003          -0.537730   -0.000258    0.247293
   838 H915  c     -1.901686          -0.000111   -0.543103   -0.267874
   839 H915  c     -1.789252          -0.374950    0.132092    0.350542
   840 H915  c     -1.938891          -0.117818    0.494950   -0.390038
   841 H915  c     -1.938538           0.117970   -0.495991   -0.389706
   842 H915  c     -1.789509           0.374060   -0.131293    0.351813
   843 H915  c     -1.937875          -0.117747   -0.494261   -0.390425
   844 H915  c     -1.940721           0.118162    0.497922   -0.388608
   845 H915  c     -1.789474           0.374037    0.131018    0.352049
   846 H915  c     -1.788863          -0.375185   -0.133119    0.349638
   847 H915  c     -1.910171          -0.123977   -0.469457    0.368760
   848 H915  c     -1.814508          -0.387332   -0.123353   -0.362114
   849 H915  c     -1.814293           0.387553    0.122877   -0.362193
   850 H915  c     -1.914711           0.122260    0.469863    0.367309
   851 H915  c     -1.816901           0.387315   -0.122807   -0.363393
   852 H915  c     -1.812246          -0.387400    0.122702   -0.361489
   853 H915  c     -1.918625          -0.124139    0.467397    0.365555
   854 H915  c     -1.905085           0.121846   -0.470928    0.371355
   855 H915  c     -1.833374          -0.005067    0.489137    0.292681
   856 H915  c     -1.667095          -0.247560    0.002434   -0.164576
   857 H915  c     -1.779660          -0.003752   -0.503888    0.334019
   858 H915  c     -1.392194           0.268518    0.004091    0.040097
   859 H915  c     -1.784756           0.503734    0.004725    0.337429
   860 H915  c     -1.670388          -0.001996    0.246821   -0.165653
   861 H915  c     -1.837508          -0.490409    0.006136    0.297397
   862 H915  c     -1.392982          -0.003262   -0.269164    0.038695
   863 H915  c     -1.826085          -0.381594    0.124716    0.355468
   864 H915  c     -1.903689          -0.122762    0.472590   -0.371182
   865 H915  c     -1.908313           0.122878   -0.472483   -0.373107
   866 H915  c     -1.811965           0.384033   -0.122410    0.361612
   867 H915  c     -1.906519          -0.123011   -0.472612   -0.372183
   868 H915  c     -1.905115           0.123387    0.472486   -0.371521
   869 H915  c     -1.818931           0.382751    0.124824    0.358363
   870 H915  c     -1.820326          -0.383865   -0.122406    0.357844
   871 Zn172 c    -20.958411           0.012447   -0.364500   -0.003901
   872 Zn172 c    -20.712532          -0.559202    0.040402    0.187937
   873 Zn172 c    -20.830704           0.515286    0.032463    0.300025
   874 Zn172 c    -20.948400           0.009969    0.392332    0.007359
   875 Zn172 c    -20.610693           0.465548    0.014428   -0.025100
   876 Zn172 c    -20.856027           0.082615    0.374574   -0.154399
   877 Zn172 c    -20.620542          -0.391767    0.014693   -0.064286
   878 Zn172 c    -20.715474           0.076676   -0.162408   -0.271542
   879 Zn172 c    -20.979107          -0.000120   -0.242005    0.080210
   880 Zn172 c    -20.573602          -0.527533    0.003360    0.079439
   881 Zn172 c    -20.570576           0.515818    0.004575    0.073990
   882 Zn172 c    -20.978704          -0.000418    0.244420    0.081279
   883 Zn172 c    -20.591904           0.548405   -0.000100   -0.120708
   884 Zn172 c    -21.000726           0.010652    0.267989   -0.033883
   885 Zn172 c    -20.589980          -0.545355    0.000375   -0.125162
   886 Zn172 c    -20.998439           0.008460   -0.272844   -0.034929
   887 Zn172 c    -20.887497           0.002756   -0.275749    0.125681
   888 Zn172 c    -20.648246          -0.476602    0.001338    0.101206
   889 Zn172 c    -20.648958           0.475342    0.001008    0.099565
   890 Zn172 c    -20.893553           0.004379    0.282023    0.115744
   891 Zn172 c    -20.662249           0.507122   -0.003291   -0.139216
   892 Zn172 c    -20.910718          -0.001006    0.307768   -0.051084
   893 Zn172 c    -20.668098          -0.513240   -0.005485   -0.149477
   894 Zn172 c    -20.911899          -0.000720   -0.307527   -0.052403
-------------------------------------------------------------------------------

  Total time to end of lattice properties =    2386.5498 s


  Peak dynamic memory used =     148.21 MB 


  Timing analysis for GULP :

--------------------------------------------------------------------------------
  Task / Subroutine                                          Time (Seconds)
--------------------------------------------------------------------------------
  Calculation of reciprocal space energy and derivatives        234.0242
  Calculation of real space energy and derivatives              157.5976
  Calculation of three-body energy and derivatives                0.4175
  Calculation of four-body energy and derivatives                 0.4749
  Calculation of molecules and connectivity                       0.3419
  Calculation of phonons                                         51.4606
  Calculation of scattering                                       0.0000
  Symmetry generation of equivalent positions                     0.0131
  Global summation overhead                                       0.0003
--------------------------------------------------------------------------------
  Total CPU time                                               2386.5500
--------------------------------------------------------------------------------


  Dump file written as fit1.res                                                


  Job Finished at 16:19.01 18th May        2016                               

