********************************************************************************
*                       GENERAL UTILITY LATTICE PROGRAM                        *
*                                 Julian Gale                                  *
*                      Nanochemistry Research Institute                        *
*                           Department of Chemistry                            *
*                    Curtin University, Western Australia                      *
********************************************************************************
* Version = 4.4.0 * Last modified = 31st March 2015                            *
********************************************************************************
*  optimise     - perform optimisation run                                     *
*  conv         - constant volume calculation                                  *
*  property     - calculate properties for final geometry                      *
*  phonon       - calculate phonons for final geometry                         *
*  potential    - calculate electrostatic site potentials                      *
*  molmec       - molecule option activated, Coulomb subtract 1-2/1-3 terms    *
*  fix_molecule - fix atoms of molecule as at the start of the run             *
*  compare      - compare initial and final structures                         *
********************************************************************************

  Job Started  at 22:21.07 17th May        2016                               

  Number of CPUs =     1


  Total number of configurations input =   1

********************************************************************************
*  Input for Configuration =   1                                               *
********************************************************************************

  Formula = Ti180O446H84C160Zn24                                        

  Number of irreducible atoms/shells =     894


  Total number atoms/shells =     894

  Dimensionality = 3               :  Bulk   



  Cartesian lattice vectors (Angstroms) :

       17.724000    0.000000    0.000000
        0.000000   19.461000    0.000000
        0.000000    0.000000  114.868482

  Cell parameters (Angstroms/Degrees):

  a =      17.7240    alpha =  90.0000
  b =      19.4610    beta  =  90.0000
  c =     114.8685    gamma =  90.0000

  Initial cell volume =       39621.213782 Angs**3

  Temperature of configuration =  0.000     K 

  Pressure of configuration =         0.000 GPa 

  Fractional coordinates of asymmetric unit :

--------------------------------------------------------------------------------
   No.  Atomic       x           y          z         Charge      Occupancy
        Label      (Frac)      (Frac)     (Frac)        (e)         (Frac)  
--------------------------------------------------------------------------------
      1 Ti    c    0.320000    0.733333    0.339268     2.43600    1.000000    
      2 Ti    c    0.148939 *  0.399059 *  0.341457 *   2.43600    1.000000    
      3 Ti    c    0.982174 *  0.399578 *  0.341456 *   2.43600    1.000000    
      4 Ti    c    0.815275 *  0.399671 *  0.341550 *   2.43600    1.000000    
      5 Ti    c    0.650440 *  0.399250 *  0.340041 *   2.43600    1.000000    
      6 Ti    c    0.481348 *  0.399829 *  0.340277 *   2.43600    1.000000    
      7 Ti    c    0.316252 *  0.399273 *  0.341530 *   2.43600    1.000000    
      8 Ti    c    0.148822 *  0.065658 *  0.340921 *   2.43600    1.000000    
      9 Ti    c    0.982383 *  0.065682 *  0.341399 *   2.43600    1.000000    
     10 Ti    c    0.815735 *  0.066021 *  0.341415 *   2.43600    1.000000    
     11 Ti    c    0.649081 *  0.065545 *  0.341341 *   2.43600    1.000000    
     12 Ti    c    0.482021 *  0.065720 *  0.341351 *   2.43600    1.000000    
     13 Ti    c    0.315608 *  0.065646 *  0.341349 *   2.43600    1.000000    
     14 Ti    c    0.143986 *  0.733174 *  0.338752 *   2.43600    1.000000    
     15 Ti    c    0.981488 *  0.732992 *  0.341532 *   2.43600    1.000000    
     16 Ti    c    0.815631 *  0.732524 *  0.341518 *   2.43600    1.000000    
     17 Ti    c    0.649196 *  0.731813 *  0.341525 *   2.43600    1.000000    
     18 Ti    c    0.483066 *  0.731654 *  0.341593 *   2.43600    1.000000    
     19 Ti    c    0.065604 *  0.232082 *  0.339249 *   2.43600    1.000000    
     20 Ti    c    0.898694 *  0.232678 *  0.339284 *   2.43600    1.000000    
     21 Ti    c    0.731925 *  0.233223 *  0.339223 *   2.43600    1.000000    
     22 Ti    c    0.899840 *  0.899150 *  0.339270 *   2.43600    1.000000    
     23 Ti    c    0.565256 *  0.898129 *  0.339256 *   2.43600    1.000000    
     24 Ti    c    0.398053 *  0.899210 *  0.339236 *   2.43600    1.000000    
     25 Ti    c    0.898713 *  0.566194 *  0.339173 *   2.43600    1.000000    
     26 Ti    c    0.565664 *  0.564469 *  0.340749 *   2.43600    1.000000    
     27 Ti    c    0.399123 *  0.566911 *  0.339037 *   2.43600    1.000000    
     28 Ti    c    0.232656 *  0.231753 *  0.339224 *   2.43600    1.000000    
     29 Ti    c    0.565703 *  0.230557 *  0.339536 *   2.43600    1.000000    
     30 Ti    c    0.399454 *  0.233326 *  0.339262 *   2.43600    1.000000    
     31 Ti    c    0.231324 *  0.900704 *  0.340558 *   2.43600    1.000000    
     32 Ti    c    0.066410 *  0.899613 *  0.340839 *   2.43600    1.000000    
     33 Ti    c    0.732571 *  0.899016 *  0.339307 *   2.43600    1.000000    
     34 Ti    c    0.232542 *  0.563767 *  0.338790 *   2.43600    1.000000    
     35 Ti    c    0.065601 *  0.567111 *  0.339174 *   2.43600    1.000000    
     36 Ti    c    0.732114 *  0.566340 *  0.339011 *   2.43600    1.000000    
     37 Ti    c    0.315651 *  0.565940 *  0.311733 *   2.43600    1.000000    
     38 Ti    c    0.148980 *  0.232617 *  0.312100 *   2.43600    1.000000    
     39 Ti    c    0.982218 *  0.232678 *  0.312101 *   2.43600    1.000000    
     40 Ti    c    0.815674 *  0.232537 *  0.312040 *   2.43600    1.000000    
     41 Ti    c    0.648893 *  0.232343 *  0.312172 *   2.43600    1.000000    
     42 Ti    c    0.482393 *  0.232349 *  0.312179 *   2.43600    1.000000    
     43 Ti    c    0.315637 *  0.232563 *  0.312024 *   2.43600    1.000000    
     44 Ti    c    0.148753 *  0.899490 *  0.313474 *   2.43600    1.000000    
     45 Ti    c    0.982423 *  0.899367 *  0.312581 *   2.43600    1.000000    
     46 Ti    c    0.815530 *  0.899169 *  0.312109 *   2.43600    1.000000    
     47 Ti    c    0.648982 *  0.898962 *  0.312131 *   2.43600    1.000000    
     48 Ti    c    0.482452 *  0.899045 *  0.312025 *   2.43600    1.000000    
     49 Ti    c    0.315439 *  0.899333 *  0.312523 *   2.43600    1.000000    
     50 Ti    c    0.148737 *  0.565882 *  0.311870 *   2.43600    1.000000    
     51 Ti    c    0.982151 *  0.565848 *  0.311970 *   2.43600    1.000000    
     52 Ti    c    0.815755 *  0.566028 *  0.311903 *   2.43600    1.000000    
     53 Ti    c    0.648577 *  0.565571 *  0.312614 *   2.43600    1.000000    
     54 Ti    c    0.482799 *  0.565540 *  0.312569 *   2.43600    1.000000    
     55 Ti    c    0.400661 *  0.732169 *  0.312273 *   2.43600    1.000000    
     56 Ti    c    0.232126 *  0.399226 *  0.312857 *   2.43600    1.000000    
     57 Ti    c    0.065640 *  0.399062 *  0.312871 *   2.43600    1.000000    
     58 Ti    c    0.899159 *  0.399281 *  0.312883 *   2.43600    1.000000    
     59 Ti    c    0.733129 *  0.398867 *  0.312567 *   2.43600    1.000000    
     60 Ti    c    0.565552 *  0.398892 *  0.312604 *   2.43600    1.000000    
     61 Ti    c    0.398258 *  0.398686 *  0.312612 *   2.43600    1.000000    
     62 Ti    c    0.232426 *  0.066032 *  0.312827 *   2.43600    1.000000    
     63 Ti    c    0.065463 *  0.066073 *  0.312848 *   2.43600    1.000000    
     64 Ti    c    0.898896 *  0.065935 *  0.312892 *   2.43600    1.000000    
     65 Ti    c    0.732279 *  0.065668 *  0.312872 *   2.43600    1.000000    
     66 Ti    c    0.565606 *  0.065672 *  0.312855 *   2.43600    1.000000    
     67 Ti    c    0.398982 *  0.065834 *  0.312857 *   2.43600    1.000000    
     68 Ti    c    0.232354 *  0.732786 *  0.312327 *   2.43600    1.000000    
     69 Ti    c    0.063660 *  0.732675 *  0.312183 *   2.43600    1.000000    
     70 Ti    c    0.898404 *  0.732646 *  0.312877 *   2.43600    1.000000    
     71 Ti    c    0.732264 *  0.732228 *  0.312917 *   2.43600    1.000000    
     72 Ti    c    0.566126 *  0.732229 *  0.312956 *   2.43600    1.000000    
     73 Ti    c    0.315631 *  0.732494 *  0.284696 *   2.43600    1.000000    
     74 Ti    c    0.148889 *  0.399210 *  0.284999 *   2.43600    1.000000    
     75 Ti    c    0.982316 *  0.399199 *  0.285010 *   2.43600    1.000000    
     76 Ti    c    0.815734 *  0.399160 *  0.284962 *   2.43600    1.000000    
     77 Ti    c    0.648914 *  0.399126 *  0.284842 *   2.43600    1.000000    
     78 Ti    c    0.482280 *  0.399122 *  0.284849 *   2.43600    1.000000    
     79 Ti    c    0.315506 *  0.399170 *  0.284962 *   2.43600    1.000000    
     80 Ti    c    0.148917 *  0.065834 *  0.285090 *   2.43600    1.000000    
     81 Ti    c    0.982261 *  0.065831 *  0.285118 *   2.43600    1.000000    
     82 Ti    c    0.815578 *  0.065808 *  0.285087 *   2.43600    1.000000    
     83 Ti    c    0.648937 *  0.065806 *  0.285046 *   2.43600    1.000000    
     84 Ti    c    0.482293 *  0.065764 *  0.285064 *   2.43600    1.000000    
     85 Ti    c    0.315607 *  0.065786 *  0.285101 *   2.43600    1.000000    
     86 Ti    c    0.148889 *  0.732594 *  0.284626 *   2.43600    1.000000    
     87 Ti    c    0.981912 *  0.732575 *  0.284867 *   2.43600    1.000000    
     88 Ti    c    0.815443 *  0.732477 *  0.285074 *   2.43600    1.000000    
     89 Ti    c    0.648961 *  0.732426 *  0.285064 *   2.43600    1.000000    
     90 Ti    c    0.482645 *  0.732455 *  0.284902 *   2.43600    1.000000    
     91 Ti    c    0.399431 *  0.565781 *  0.285026 *   2.43600    1.000000    
     92 Ti    c    0.232243 *  0.232457 *  0.285027 *   2.43600    1.000000    
     93 Ti    c    0.065605 *  0.232522 *  0.285043 *   2.43600    1.000000    
     94 Ti    c    0.898969 *  0.232486 *  0.285034 *   2.43600    1.000000    
     95 Ti    c    0.732221 *  0.232511 *  0.285041 *   2.43600    1.000000    
     96 Ti    c    0.565599 *  0.232471 *  0.285067 *   2.43600    1.000000    
     97 Ti    c    0.399001 *  0.232497 *  0.285043 *   2.43600    1.000000    
     98 Ti    c    0.231804 *  0.899144 *  0.285519 *   2.43600    1.000000    
     99 Ti    c    0.065964 *  0.899190 *  0.285544 *   2.43600    1.000000    
    100 Ti    c    0.899253 *  0.899180 *  0.285225 *   2.43600    1.000000    
    101 Ti    c    0.732330 *  0.899151 *  0.285079 *   2.43600    1.000000    
    102 Ti    c    0.565619 *  0.899115 *  0.285052 *   2.43600    1.000000    
    103 Ti    c    0.398583 *  0.899091 *  0.285164 *   2.43600    1.000000    
    104 Ti    c    0.232271 *  0.565833 *  0.284837 *   2.43600    1.000000    
    105 Ti    c    0.065475 *  0.565940 *  0.284886 *   2.43600    1.000000    
    106 Ti    c    0.898820 *  0.565769 *  0.284941 *   2.43600    1.000000    
    107 Ti    c    0.731885 *  0.565716 *  0.285106 *   2.43600    1.000000    
    108 Ti    c    0.565677 *  0.565693 *  0.285267 *   2.43600    1.000000    
    109 Ti    c    0.315723 *  0.565834 *  0.257869 *   2.43600    1.000000    
    110 Ti    c    0.148929 *  0.232513 *  0.257990 *   2.43600    1.000000    
    111 Ti    c    0.982258 *  0.232505 *  0.257991 *   2.43600    1.000000    
    112 Ti    c    0.815581 *  0.232492 *  0.257985 *   2.43600    1.000000    
    113 Ti    c    0.648908 *  0.232475 *  0.257989 *   2.43600    1.000000    
    114 Ti    c    0.482269 *  0.232478 *  0.257991 *   2.43600    1.000000    
    115 Ti    c    0.315612 *  0.232499 *  0.257982 *   2.43600    1.000000    
    116 Ti    c    0.148911 *  0.899161 *  0.258341 *   2.43600    1.000000    
    117 Ti    c    0.982427 *  0.899166 *  0.258242 *   2.43600    1.000000    
    118 Ti    c    0.815703 *  0.899176 *  0.258086 *   2.43600    1.000000    
    119 Ti    c    0.648941 *  0.899178 *  0.258018 *   2.43600    1.000000    
    120 Ti    c    0.482154 *  0.899163 *  0.258042 *   2.43600    1.000000    
    121 Ti    c    0.315395 *  0.899158 *  0.258195 *   2.43600    1.000000    
    122 Ti    c    0.148920 *  0.565837 *  0.257827 *   2.43600    1.000000    
    123 Ti    c    0.982183 *  0.565839 *  0.257877 *   2.43600    1.000000    
    124 Ti    c    0.815457 *  0.565818 *  0.257961 *   2.43600    1.000000    
    125 Ti    c    0.648841 *  0.565819 *  0.258073 *   2.43600    1.000000    
    126 Ti    c    0.482385 *  0.565833 *  0.258034 *   2.43600    1.000000    
    127 Ti    c    0.399081 *  0.732520 *  0.257076 *   2.43600    1.000000    
    128 Ti    c    0.232231 *  0.399168 *  0.257157 *   2.43600    1.000000    
    129 Ti    c    0.065581 *  0.399162 *  0.257176 *   2.43600    1.000000    
    130 Ti    c    0.898949 *  0.399169 *  0.257167 *   2.43600    1.000000    
    131 Ti    c    0.732309 *  0.399150 *  0.257133 *   2.43600    1.000000    
    132 Ti    c    0.565590 *  0.399144 *  0.257108 *   2.43600    1.000000    
    133 Ti    c    0.398878 *  0.399160 *  0.257126 *   2.43600    1.000000    
    134 Ti    c    0.232243 *  0.065836 *  0.257295 *   2.43600    1.000000    
    135 Ti    c    0.065596 *  0.065824 *  0.257305 *   2.43600    1.000000    
    136 Ti    c    0.898964 *  0.065810 *  0.257283 *   2.43600    1.000000    
    137 Ti    c    0.732287 *  0.065812 *  0.257250 *   2.43600    1.000000    
    138 Ti    c    0.565574 *  0.065796 *  0.257241 *   2.43600    1.000000    
    139 Ti    c    0.398883 *  0.065796 *  0.257264 *   2.43600    1.000000    
    140 Ti    c    0.232278 *  0.732497 *  0.257005 *   2.43600    1.000000    
    141 Ti    c    0.065416 *  0.732511 *  0.257058 *   2.43600    1.000000    
    142 Ti    c    0.898762 *  0.732517 *  0.257168 *   2.43600    1.000000    
    143 Ti    c    0.732242 *  0.732506 *  0.257231 *   2.43600    1.000000    
    144 Ti    c    0.565718 *  0.732531 *  0.257181 *   2.43600    1.000000    
    145 Ti    c    0.399060 *  0.565871 *  0.230773 *   2.43600    1.000000    
    146 Ti    c    0.315605 *  0.732607 *  0.228530 *   2.43600    1.000000    
    147 Ti    c    0.232248 *  0.232448 *  0.230817 *   2.43600    1.000000    
    148 Ti    c    0.148911 *  0.399150 *  0.228625 *   2.43600    1.000000    
    149 Ti    c    0.065585 *  0.232459 *  0.230822 *   2.43600    1.000000    
    150 Ti    c    0.982237 *  0.399150 *  0.228630 *   2.43600    1.000000    
    151 Ti    c    0.898922 *  0.232463 *  0.230820 *   2.43600    1.000000    
    152 Ti    c    0.815575 *  0.399154 *  0.228616 *   2.43600    1.000000    
    153 Ti    c    0.732249 *  0.232457 *  0.230814 *   2.43600    1.000000    
    154 Ti    c    0.648924 *  0.399154 *  0.228590 *   2.43600    1.000000    
    155 Ti    c    0.565579 *  0.232465 *  0.230813 *   2.43600    1.000000    
    156 Ti    c    0.482268 *  0.399156 *  0.228585 *   2.43600    1.000000    
    157 Ti    c    0.398918 *  0.232464 *  0.230814 *   2.43600    1.000000    
    158 Ti    c    0.315593 *  0.399156 *  0.228607 *   2.43600    1.000000    
    159 Ti    c    0.232130 *  0.899184 *  0.231046 *   2.43600    1.000000    
    160 Ti    c    0.148901 *  0.065756 *  0.228770 *   2.43600    1.000000    
    161 Ti    c    0.065651 *  0.899178 *  0.231068 *   2.43600    1.000000    
    162 Ti    c    0.982286 *  0.065759 *  0.228763 *   2.43600    1.000000    
    163 Ti    c    0.899062 *  0.899190 *  0.230970 *   2.43600    1.000000    
    164 Ti    c    0.815629 *  0.065770 *  0.228729 *   2.43600    1.000000    
    165 Ti    c    0.732332 *  0.899190 *  0.230878 *   2.43600    1.000000    
    166 Ti    c    0.648923 *  0.065776 *  0.228704 *   2.43600    1.000000    
    167 Ti    c    0.565546 *  0.899180 *  0.230856 *   2.43600    1.000000    
    168 Ti    c    0.482212 *  0.065765 *  0.228714 *   2.43600    1.000000    
    169 Ti    c    0.398766 *  0.899187 *  0.230925 *   2.43600    1.000000    
    170 Ti    c    0.315532 *  0.065758 *  0.228748 *   2.43600    1.000000    
    171 Ti    c    0.232308 *  0.565880 *  0.230685 *   2.43600    1.000000    
    172 Ti    c    0.148880 *  0.732617 *  0.228519 *   2.43600    1.000000    
    173 Ti    c    0.065529 *  0.565879 *  0.230692 *   2.43600    1.000000    
    174 Ti    c    0.982188 *  0.732613 *  0.228595 *   2.43600    1.000000    
    175 Ti    c    0.898807 *  0.565865 *  0.230755 *   2.43600    1.000000    
    176 Ti    c    0.815550 *  0.732594 *  0.228672 *   2.43600    1.000000    
    177 Ti    c    0.732154 *  0.565868 *  0.230837 *   2.43600    1.000000    
    178 Ti    c    0.648939 *  0.732585 *  0.228676 *   2.43600    1.000000    
    179 Ti    c    0.565625 *  0.565868 *  0.230861 *   2.43600    1.000000    
    180 Ti    c    0.482302 *  0.732596 *  0.228607 *   2.43600    1.000000    
    181 O2    c    0.394292 *  0.730363 *  0.349592 *  -1.21800    1.000000    
    182 O2    c    0.232810 *  0.402664 *  0.350194 *  -1.21800    1.000000    
    183 O3    c    0.065700 *  0.400318 *  0.350205 *  -0.33800    1.000000    
    184 H22   c    0.065700 *  0.400318 *  0.360205 *   0.12000    1.000000    
    185 O2    c    0.898554 *  0.400257 *  0.350266 *  -1.21800    1.000000    
    186 O2    c    0.728384 *  0.400149 *  0.349968 *  -1.21800    1.000000    
    187 O2    c    0.567275 *  0.232475 *  0.356202 *  -1.21800    1.000000    
    188 O2    c    0.402505 *  0.400207 *  0.350015 *  -1.21800    1.000000    
    189 O2    c    0.231649 *  0.067595 *  0.349898 *  -1.21800    1.000000    
    190 O2    c    0.066413 *  0.069018 *  0.349935 *  -1.21800    1.000000    
    191 O2    c    0.898845 *  0.068455 *  0.350168 *  -1.21800    1.000000    
    192 O2    c    0.732163 *  0.065598 *  0.350143 *  -1.21800    1.000000    
    193 O2    c    0.565579 *  0.067653 *  0.350059 *  -1.21800    1.000000    
    194 O2    c    0.399006 *  0.066549 *  0.350147 *  -1.21800    1.000000    
    195 O3    c    0.231329 *  0.733365 *  0.349873 *  -0.33800    1.000000    
    196 H22   c    0.228017 *  0.746279 *  0.357995 *   0.12000    1.000000    
    197 O2    c    0.071009 *  0.727905 *  0.349280 *  -1.21800    1.000000    
    198 O2    c    0.899028 *  0.730113 *  0.350354 *  -1.21800    1.000000    
    199 O2    c    0.732446 *  0.732933 *  0.350279 *  -1.21800    1.000000    
    200 O2    c    0.565603 *  0.733241 *  0.350345 *  -1.21800    1.000000    
    201 O2    c    0.149237 *  0.172748 *  0.340418 *  -1.21800    1.000000    
    202 O2    c    0.981652 *  0.172912 *  0.340637 *  -1.21800    1.000000    
    203 O2    c    0.814882 *  0.172738 *  0.340647 *  -1.21800    1.000000    
    204 O2    c    0.650374 *  0.171927 *  0.340402 *  -1.21800    1.000000    
    205 O2    c    0.481154 *  0.172183 *  0.340412 *  -1.21800    1.000000    
    206 O2    c    0.316652 *  0.172916 *  0.340685 *  -1.21800    1.000000    
    207 O2    c    0.151090 *  0.830849 *  0.338749 *  -1.21800    1.000000    
    208 O2    c    0.980249 *  0.835847 *  0.340633 *  -1.21800    1.000000    
    209 O2    c    0.815864 *  0.838151 *  0.340828 *  -1.21800    1.000000    
    210 O2    c    0.648960 *  0.838142 *  0.340745 *  -1.21800    1.000000    
    211 O2    c    0.481001 *  0.837365 *  0.340901 *  -1.21800    1.000000    
    212 O2    c    0.316916 *  0.833604 *  0.340154 *  -1.21800    1.000000    
    213 O2    c    0.982501 *  0.505734 *  0.340637 *  -1.21800    1.000000    
    214 O2    c    0.477480 *  0.501805 *  0.339164 *  -1.21800    1.000000    
    215 O2    c    0.316410 *  0.506203 *  0.340718 *  -1.21800    1.000000    
    216 O2    c    0.148420 *  0.506658 *  0.340655 *  -1.21800    1.000000    
    217 O2    c    0.815553 *  0.504940 *  0.340750 *  -1.21800    1.000000    
    218 O2    c    0.653504 *  0.501204 *  0.339117 *  -1.21800    1.000000    
    219 O2    c    0.312615 *  0.629058 *  0.340578 *  -1.21800    1.000000    
    220 O2    c    0.149613 *  0.293797 *  0.340839 *  -1.21800    1.000000    
    221 O2    c    0.982318 *  0.293910 *  0.340776 *  -1.21800    1.000000    
    222 O2    c    0.815076 *  0.294020 *  0.340985 *  -1.21800    1.000000    
    223 O2    c    0.647715 *  0.295624 *  0.340600 *  -1.21800    1.000000    
    224 O2    c    0.483642 *  0.295803 *  0.340697 *  -1.21800    1.000000    
    225 O2    c    0.315766 *  0.294183 *  0.340989 *  -1.21800    1.000000    
    226 O2    c    0.979634 *  0.961505 *  0.340519 *  -1.21800    1.000000    
    227 O2    c    0.482619 *  0.959183 *  0.340778 *  -1.21800    1.000000    
    228 O2    c    0.318331 *  0.960653 *  0.340432 *  -1.21800    1.000000    
    229 O2    c    0.152403 *  0.628863 *  0.340281 *  -1.21800    1.000000    
    230 O2    c    0.982465 *  0.626591 *  0.340747 *  -1.21800    1.000000    
    231 O2    c    0.815596 *  0.626422 *  0.340697 *  -1.21800    1.000000    
    232 O2    c    0.650229 *  0.626567 *  0.340773 *  -1.21800    1.000000    
    233 O2    c    0.480257 *  0.627017 *  0.340878 *  -1.21800    1.000000    
    234 O2    c    0.149153 *  0.964036 *  0.338937 *  -1.21800    1.000000    
    235 O2    c    0.815526 *  0.959809 *  0.340791 *  -1.21800    1.000000    
    236 O2    c    0.648467 *  0.959407 *  0.340739 *  -1.21800    1.000000    
    237 O2    c    0.402194 *  0.730928 *  0.328890 *  -1.21800    1.000000    
    238 O2    c    0.232539 *  0.400444 *  0.329554 *  -1.21800    1.000000    
    239 O2    c    0.066051 *  0.399439 *  0.329519 *  -1.21800    1.000000    
    240 O2    c    0.898967 *  0.399403 *  0.329553 *  -1.21800    1.000000    
    241 O2    c    0.734502 *  0.396546 *  0.329197 *  -1.21800    1.000000    
    242 O2    c    0.565400 *  0.396595 *  0.329721 *  -1.21800    1.000000    
    243 O2    c    0.396939 *  0.396865 *  0.329265 *  -1.21800    1.000000    
    244 O2    c    0.234148 *  0.069169 *  0.329266 *  -1.21800    1.000000    
    245 O2    c    0.064129 *  0.069180 *  0.329277 *  -1.21800    1.000000    
    246 O2    c    0.897873 *  0.066630 *  0.329448 *  -1.21800    1.000000    
    247 O2    c    0.732168 *  0.065349 *  0.329460 *  -1.21800    1.000000    
    248 O2    c    0.565604 *  0.065516 *  0.329441 *  -1.21800    1.000000    
    249 O2    c    0.399741 *  0.065856 *  0.329415 *  -1.21800    1.000000    
    250 O2    c    0.233541 *  0.729134 *  0.329957 *  -1.21800    1.000000    
    251 O2    c    0.060824 *  0.728872 *  0.328672 *  -1.21800    1.000000    
    252 O2    c    0.897909 *  0.731679 *  0.329535 *  -1.21800    1.000000    
    253 O2    c    0.732357 *  0.732122 *  0.329553 *  -1.21800    1.000000    
    254 O2    c    0.565617 *  0.733093 *  0.329622 *  -1.21800    1.000000    
    255 O2    c    0.396274 *  0.567985 *  0.322854 *  -1.21800    1.000000    
    256 O2    c    0.232798 *  0.233519 *  0.322953 *  -1.21800    1.000000    
    257 O2    c    0.065607 *  0.233471 *  0.322958 *  -1.21800    1.000000    
    258 O2    c    0.898562 *  0.233410 *  0.322989 *  -1.21800    1.000000    
    259 O2    c    0.732446 *  0.233767 *  0.322968 *  -1.21800    1.000000    
    260 O2    c    0.565622 *  0.232741 *  0.323103 *  -1.21800    1.000000    
    261 O2    c    0.398797 *  0.233962 *  0.322987 *  -1.21800    1.000000    
    262 O2    c    0.235409 *  0.898672 *  0.323509 *  -1.21800    1.000000    
    263 O2    c    0.062810 *  0.898128 *  0.323636 *  -1.21800    1.000000    
    264 O2    c    0.897259 *  0.898784 *  0.323017 *  -1.21800    1.000000    
    265 O2    c    0.732001 *  0.899062 *  0.323015 *  -1.21800    1.000000    
    266 O2    c    0.565422 *  0.898438 *  0.322985 *  -1.21800    1.000000    
    267 O2    c    0.400676 *  0.898220 *  0.322991 *  -1.21800    1.000000    
    268 O2    c    0.232454 *  0.565487 *  0.322687 *  -1.21800    1.000000    
    269 O2    c    0.066164 *  0.566852 *  0.322901 *  -1.21800    1.000000    
    270 O2    c    0.899247 *  0.565918 *  0.322893 *  -1.21800    1.000000    
    271 O2    c    0.734364 *  0.566738 *  0.322832 *  -1.21800    1.000000    
    272 O2    c    0.565243 *  0.566455 *  0.323557 *  -1.21800    1.000000    
    273 O2    c    0.315180 *  0.667709 *  0.312459 *  -1.21800    1.000000    
    274 O2    c    0.315589 *  0.464888 *  0.312391 *  -1.21800    1.000000    
    275 O2    c    0.149110 *  0.334074 *  0.312571 *  -1.21800    1.000000    
    276 O2    c    0.149066 *  0.131932 *  0.312419 *  -1.21800    1.000000    
    277 O2    c    0.982321 *  0.334022 *  0.312548 *  -1.21800    1.000000    
    278 O2    c    0.981770 *  0.131986 *  0.312398 *  -1.21800    1.000000    
    279 O2    c    0.816152 *  0.333687 *  0.312304 *  -1.21800    1.000000    
    280 O2    c    0.815204 *  0.131689 *  0.312509 *  -1.21800    1.000000    
    281 O2    c    0.648721 *  0.333980 *  0.312583 *  -1.21800    1.000000    
    282 O2    c    0.648905 *  0.131455 *  0.312567 *  -1.21800    1.000000    
    283 O2    c    0.482468 *  0.333985 *  0.312565 *  -1.21800    1.000000    
    284 O2    c    0.482447 *  0.131557 *  0.312534 *  -1.21800    1.000000    
    285 O2    c    0.315099 *  0.333859 *  0.312352 *  -1.21800    1.000000    
    286 O2    c    0.316290 *  0.131919 *  0.312377 *  -1.21800    1.000000    
    287 O2    c    0.149049 *  0.000859 *  0.312739 *  -1.21800    1.000000    
    288 O2    c    0.149112 *  0.796068 *  0.313031 *  -1.21800    1.000000    
    289 O2    c    0.982071 *  0.000686 *  0.312547 *  -1.21800    1.000000    
    290 O2    c    0.981303 *  0.797709 *  0.312275 *  -1.21800    1.000000    
    291 O2    c    0.815366 *  0.000438 *  0.312489 *  -1.21800    1.000000    
    292 O2    c    0.815102 *  0.797805 *  0.312521 *  -1.21800    1.000000    
    293 O2    c    0.648803 *  0.000192 *  0.312535 *  -1.21800    1.000000    
    294 O2    c    0.649034 *  0.797767 *  0.312563 *  -1.21800    1.000000    
    295 O2    c    0.482369 *  0.000189 *  0.312462 *  -1.21800    1.000000    
    296 O2    c    0.482936 *  0.797705 *  0.312247 *  -1.21800    1.000000    
    297 O2    c    0.315983 *  0.000499 *  0.312498 *  -1.21800    1.000000    
    298 O2    c    0.315851 *  0.796357 *  0.312810 *  -1.21800    1.000000    
    299 O2    c    0.149363 *  0.667628 *  0.312603 *  -1.21800    1.000000    
    300 O2    c    0.148956 *  0.465021 *  0.312512 *  -1.21800    1.000000    
    301 O2    c    0.981340 *  0.666469 *  0.312049 *  -1.21800    1.000000    
    302 O2    c    0.982684 *  0.464890 *  0.312554 *  -1.21800    1.000000    
    303 O2    c    0.815687 *  0.666966 *  0.312395 *  -1.21800    1.000000    
    304 O2    c    0.815838 *  0.464634 *  0.312417 *  -1.21800    1.000000    
    305 O2    c    0.648924 *  0.666818 *  0.312664 *  -1.21800    1.000000    
    306 O2    c    0.648723 *  0.463649 *  0.312798 *  -1.21800    1.000000    
    307 O2    c    0.482995 *  0.666583 *  0.312340 *  -1.21800    1.000000    
    308 O2    c    0.482103 *  0.463895 *  0.312777 *  -1.21800    1.000000    
    309 O2    c    0.400058 *  0.565690 *  0.301608 *  -1.21800    1.000000    
    310 O2    c    0.232198 *  0.232797 *  0.301566 *  -1.21800    1.000000    
    311 O2    c    0.065640 *  0.233104 *  0.301590 *  -1.21800    1.000000    
    312 O2    c    0.898994 *  0.232714 *  0.301574 *  -1.21800    1.000000    
    313 O2    c    0.731912 *  0.232829 *  0.301604 *  -1.21800    1.000000    
    314 O2    c    0.565636 *  0.232943 *  0.301662 *  -1.21800    1.000000    
    315 O2    c    0.399385 *  0.233070 *  0.301606 *  -1.21800    1.000000    
    316 O2    c    0.231175 *  0.897728 *  0.302152 *  -1.21800    1.000000    
    317 O2    c    0.066952 *  0.898371 *  0.302175 *  -1.21800    1.000000    
    318 O2    c    0.899433 *  0.899345 *  0.301732 *  -1.21800    1.000000    
    319 O2    c    0.732166 *  0.899139 *  0.301619 *  -1.21800    1.000000    
    320 O2    c    0.565828 *  0.899251 *  0.301589 *  -1.21800    1.000000    
    321 O2    c    0.398064 *  0.898307 *  0.301713 *  -1.21800    1.000000    
    322 O2    c    0.232052 *  0.566664 *  0.301404 *  -1.21800    1.000000    
    323 O2    c    0.065716 *  0.566228 *  0.301477 *  -1.21800    1.000000    
    324 O2    c    0.898941 *  0.565198 *  0.301474 *  -1.21800    1.000000    
    325 O2    c    0.731115 *  0.565081 *  0.301648 *  -1.21800    1.000000    
    326 O2    c    0.565746 *  0.564482 *  0.301927 *  -1.21800    1.000000    
    327 O2    c    0.398492 *  0.732183 *  0.295588 *  -1.21800    1.000000    
    328 O2    c    0.232247 *  0.399589 *  0.295813 *  -1.21800    1.000000    
    329 O2    c    0.065706 *  0.399385 *  0.295842 *  -1.21800    1.000000    
    330 O2    c    0.899056 *  0.399465 *  0.295814 *  -1.21800    1.000000    
    331 O2    c    0.731903 *  0.399179 *  0.295723 *  -1.21800    1.000000    
    332 O2    c    0.565543 *  0.399252 *  0.295740 *  -1.21800    1.000000    
    333 O2    c    0.399227 *  0.399221 *  0.295740 *  -1.21800    1.000000    
    334 O2    c    0.232335 *  0.066018 *  0.295859 *  -1.21800    1.000000    
    335 O2    c    0.065655 *  0.066093 *  0.295869 *  -1.21800    1.000000    
    336 O2    c    0.898720 *  0.066084 *  0.295865 *  -1.21800    1.000000    
    337 O2    c    0.732053 *  0.065929 *  0.295859 *  -1.21800    1.000000    
    338 O2    c    0.565669 *  0.065967 *  0.295854 *  -1.21800    1.000000    
    339 O2    c    0.399174 *  0.065954 *  0.295849 *  -1.21800    1.000000    
    340 O2    c    0.232130 *  0.732426 *  0.295589 *  -1.21800    1.000000    
    341 O2    c    0.066286 *  0.732225 *  0.295544 *  -1.21800    1.000000    
    342 O2    c    0.898964 *  0.732439 *  0.295761 *  -1.21800    1.000000    
    343 O2    c    0.732062 *  0.732287 *  0.295870 *  -1.21800    1.000000    
    344 O2    c    0.565540 *  0.732234 *  0.295829 *  -1.21800    1.000000    
    345 O2    c    0.315735 *  0.501210 *  0.285065 *  -1.21800    1.000000    
    346 O2    c    0.315801 *  0.630539 *  0.284994 *  -1.21800    1.000000    
    347 O2    c    0.148945 *  0.167849 *  0.285025 *  -1.21800    1.000000    
    348 O2    c    0.149011 *  0.297509 *  0.285008 *  -1.21800    1.000000    
    349 O2    c    0.982281 *  0.167835 *  0.285028 *  -1.21800    1.000000    
    350 O2    c    0.982280 *  0.297474 *  0.285012 *  -1.21800    1.000000    
    351 O2    c    0.815487 *  0.167823 *  0.285055 *  -1.21800    1.000000    
    352 O2    c    0.815559 *  0.297396 *  0.285018 *  -1.21800    1.000000    
    353 O2    c    0.648842 *  0.167774 *  0.285051 *  -1.21800    1.000000    
    354 O2    c    0.648826 *  0.297408 *  0.285003 *  -1.21800    1.000000    
    355 O2    c    0.482337 *  0.167769 *  0.285055 *  -1.21800    1.000000    
    356 O2    c    0.482327 *  0.297433 *  0.284996 *  -1.21800    1.000000    
    357 O2    c    0.315741 *  0.167848 *  0.285062 *  -1.21800    1.000000    
    358 O2    c    0.315641 *  0.297446 *  0.285023 *  -1.21800    1.000000    
    359 O2    c    0.148972 *  0.833904 *  0.285067 *  -1.21800    1.000000    
    360 O2    c    0.149011 *  0.964061 *  0.285228 *  -1.21800    1.000000    
    361 O2    c    0.982628 *  0.834233 *  0.285152 *  -1.21800    1.000000    
    362 O2    c    0.982649 *  0.963928 *  0.285258 *  -1.21800    1.000000    
    363 O2    c    0.815663 *  0.834342 *  0.285117 *  -1.21800    1.000000    
    364 O2    c    0.815639 *  0.963939 *  0.285113 *  -1.21800    1.000000    
    365 O2    c    0.648917 *  0.834277 *  0.285049 *  -1.21800    1.000000    
    366 O2    c    0.648908 *  0.963974 *  0.285030 *  -1.21800    1.000000    
    367 O2    c    0.482115 *  0.834253 *  0.285069 *  -1.21800    1.000000    
    368 O2    c    0.482076 *  0.963785 *  0.285135 *  -1.21800    1.000000    
    369 O2    c    0.315251 *  0.834064 *  0.285132 *  -1.21800    1.000000    
    370 O2    c    0.315279 *  0.963781 *  0.285269 *  -1.21800    1.000000    
    371 O2    c    0.148941 *  0.501200 *  0.284972 *  -1.21800    1.000000    
    372 O2    c    0.149000 *  0.630703 *  0.284859 *  -1.21800    1.000000    
    373 O2    c    0.982396 *  0.501079 *  0.284957 *  -1.21800    1.000000    
    374 O2    c    0.982204 *  0.630626 *  0.284896 *  -1.21800    1.000000    
    375 O2    c    0.815407 *  0.500970 *  0.285015 *  -1.21800    1.000000    
    376 O2    c    0.815369 *  0.630409 *  0.285089 *  -1.21800    1.000000    
    377 O2    c    0.648692 *  0.500720 *  0.284990 *  -1.21800    1.000000    
    378 O2    c    0.648646 *  0.630537 *  0.285086 *  -1.21800    1.000000    
    379 O2    c    0.482404 *  0.500816 *  0.285006 *  -1.21800    1.000000    
    380 O2    c    0.482520 *  0.630608 *  0.285021 *  -1.21800    1.000000    
    381 O2    c    0.399236 *  0.732436 *  0.274065 *  -1.21800    1.000000    
    382 O2    c    0.232258 *  0.399474 *  0.274182 *  -1.21800    1.000000    
    383 O2    c    0.065643 *  0.399321 *  0.274195 *  -1.21800    1.000000    
    384 O2    c    0.899017 *  0.399274 *  0.274181 *  -1.21800    1.000000    
    385 O2    c    0.732427 *  0.399082 *  0.274131 *  -1.21800    1.000000    
    386 O2    c    0.565544 *  0.398968 *  0.274105 *  -1.21800    1.000000    
    387 O2    c    0.398718 *  0.399285 *  0.274138 *  -1.21800    1.000000    
    388 O2    c    0.232363 *  0.065971 *  0.274279 *  -1.21800    1.000000    
    389 O2    c    0.065568 *  0.065955 *  0.274282 *  -1.21800    1.000000    
    390 O2    c    0.898969 *  0.065780 *  0.274278 *  -1.21800    1.000000    
    391 O2    c    0.732292 *  0.065870 *  0.274251 *  -1.21800    1.000000    
    392 O2    c    0.565516 *  0.065742 *  0.274246 *  -1.21800    1.000000    
    393 O2    c    0.398875 *  0.065660 *  0.274266 *  -1.21800    1.000000    
    394 O2    c    0.232452 *  0.732034 *  0.273991 *  -1.21800    1.000000    
    395 O2    c    0.065203 *  0.732200 *  0.274021 *  -1.21800    1.000000    
    396 O2    c    0.898521 *  0.732410 *  0.274164 *  -1.21800    1.000000    
    397 O2    c    0.732245 *  0.732420 *  0.274242 *  -1.21800    1.000000    
    398 O2    c    0.565838 *  0.732660 *  0.274184 *  -1.21800    1.000000    
    399 O2    c    0.398717 *  0.565823 *  0.268459 *  -1.21800    1.000000    
    400 O2    c    0.232334 *  0.232629 *  0.268475 *  -1.21800    1.000000    
    401 O2    c    0.065612 *  0.232667 *  0.268479 *  -1.21800    1.000000    
    402 O2    c    0.898881 *  0.232606 *  0.268477 *  -1.21800    1.000000    
    403 O2    c    0.732220 *  0.232597 *  0.268480 *  -1.21800    1.000000    
    404 O2    c    0.565580 *  0.232566 *  0.268489 *  -1.21800    1.000000    
    405 O2    c    0.398943 *  0.232607 *  0.268482 *  -1.21800    1.000000    
    406 O2    c    0.232472 *  0.899049 *  0.268775 *  -1.21800    1.000000    
    407 O2    c    0.065518 *  0.899112 *  0.268791 *  -1.21800    1.000000    
    408 O2    c    0.898824 *  0.899106 *  0.268639 *  -1.21800    1.000000    
    409 O2    c    0.732195 *  0.899086 *  0.268527 *  -1.21800    1.000000    
    410 O2    c    0.565531 *  0.899094 *  0.268509 *  -1.21800    1.000000    
    411 O2    c    0.398995 *  0.899057 *  0.268599 *  -1.21800    1.000000    
    412 O2    c    0.232317 *  0.565838 *  0.268343 *  -1.21800    1.000000    
    413 O2    c    0.065702 *  0.565850 *  0.268349 *  -1.21800    1.000000    
    414 O2    c    0.898951 *  0.565797 *  0.268410 *  -1.21800    1.000000    
    415 O2    c    0.732330 *  0.565815 *  0.268516 *  -1.21800    1.000000    
    416 O2    c    0.565500 *  0.565775 *  0.268577 *  -1.21800    1.000000    
    417 O2    c    0.315696 *  0.666958 *  0.257421 *  -1.21800    1.000000    
    418 O2    c    0.315579 *  0.464740 *  0.257467 *  -1.21800    1.000000    
    419 O2    c    0.148958 *  0.333716 *  0.257524 *  -1.21800    1.000000    
    420 O2    c    0.148950 *  0.131421 *  0.257589 *  -1.21800    1.000000    
    421 O2    c    0.982270 *  0.333692 *  0.257518 *  -1.21800    1.000000    
    422 O2    c    0.982251 *  0.131416 *  0.257582 *  -1.21800    1.000000    
    423 O2    c    0.815620 *  0.333654 *  0.257497 *  -1.21800    1.000000    
    424 O2    c    0.815589 *  0.131390 *  0.257578 *  -1.21800    1.000000    
    425 O2    c    0.648921 *  0.333650 *  0.257490 *  -1.21800    1.000000    
    426 O2    c    0.648890 *  0.131367 *  0.257575 *  -1.21800    1.000000    
    427 O2    c    0.482207 *  0.333673 *  0.257496 *  -1.21800    1.000000    
    428 O2    c    0.482233 *  0.131363 *  0.257581 *  -1.21800    1.000000    
    429 O2    c    0.315567 *  0.333697 *  0.257507 *  -1.21800    1.000000    
    430 O2    c    0.315637 *  0.131402 *  0.257580 *  -1.21800    1.000000    
    431 O2    c    0.148966 *  0.000297 *  0.257700 *  -1.21800    1.000000    
    432 O2    c    0.148932 *  0.797871 *  0.257583 *  -1.21800    1.000000    
    433 O2    c    0.982301 *  0.000293 *  0.257664 *  -1.21800    1.000000    
    434 O2    c    0.982154 *  0.797966 *  0.257564 *  -1.21800    1.000000    
    435 O2    c    0.815609 *  0.000312 *  0.257608 *  -1.21800    1.000000    
    436 O2    c    0.815523 *  0.798022 *  0.257548 *  -1.21800    1.000000    
    437 O2    c    0.648904 *  0.000315 *  0.257579 *  -1.21800    1.000000    
    438 O2    c    0.648955 *  0.798035 *  0.257528 *  -1.21800    1.000000    
    439 O2    c    0.482204 *  0.000277 *  0.257592 *  -1.21800    1.000000    
    440 O2    c    0.482314 *  0.798005 *  0.257507 *  -1.21800    1.000000    
    441 O2    c    0.315560 *  0.000269 *  0.257648 *  -1.21800    1.000000    
    442 O2    c    0.315622 *  0.797912 *  0.257536 *  -1.21800    1.000000    
    443 O2    c    0.148923 *  0.666965 *  0.257398 *  -1.21800    1.000000    
    444 O2    c    0.148952 *  0.464745 *  0.257464 *  -1.21800    1.000000    
    445 O2    c    0.982113 *  0.666926 *  0.257431 *  -1.21800    1.000000    
    446 O2    c    0.982288 *  0.464724 *  0.257478 *  -1.21800    1.000000    
    447 O2    c    0.815497 *  0.666910 *  0.257511 *  -1.21800    1.000000    
    448 O2    c    0.815596 *  0.464684 *  0.257496 *  -1.21800    1.000000    
    449 O2    c    0.648912 *  0.666934 *  0.257556 *  -1.21800    1.000000    
    450 O2    c    0.648900 *  0.464637 *  0.257528 *  -1.21800    1.000000    
    451 O2    c    0.482357 *  0.666956 *  0.257510 *  -1.21800    1.000000    
    452 O2    c    0.482219 *  0.464669 *  0.257514 *  -1.21800    1.000000    
    453 O2    c    0.399220 *  0.565854 *  0.247063 *  -1.21800    1.000000    
    454 O2    c    0.232274 *  0.232566 *  0.247101 *  -1.21800    1.000000    
    455 O2    c    0.065610 *  0.232581 *  0.247104 *  -1.21800    1.000000    
    456 O2    c    0.898925 *  0.232532 *  0.247101 *  -1.21800    1.000000    
    457 O2    c    0.732224 *  0.232482 *  0.247099 *  -1.21800    1.000000    
    458 O2    c    0.565565 *  0.232503 *  0.247101 *  -1.21800    1.000000    
    459 O2    c    0.398946 *  0.232540 *  0.247100 *  -1.21800    1.000000    
    460 O2    c    0.232021 *  0.898992 *  0.247335 *  -1.21800    1.000000    
    461 O2    c    0.065786 *  0.899024 *  0.247354 *  -1.21800    1.000000    
    462 O2    c    0.899215 *  0.899168 *  0.247252 *  -1.21800    1.000000    
    463 O2    c    0.732383 *  0.899258 *  0.247159 *  -1.21800    1.000000    
    464 O2    c    0.565505 *  0.899215 *  0.247141 *  -1.21800    1.000000    
    465 O2    c    0.398612 *  0.899095 *  0.247213 *  -1.21800    1.000000    
    466 O2    c    0.232380 *  0.565927 *  0.246976 *  -1.21800    1.000000    
    467 O2    c    0.065520 *  0.565883 *  0.246980 *  -1.21800    1.000000    
    468 O2    c    0.898724 *  0.565788 *  0.247038 *  -1.21800    1.000000    
    469 O2    c    0.732020 *  0.565746 *  0.247120 *  -1.21800    1.000000    
    470 O2    c    0.565640 *  0.565763 *  0.247149 *  -1.21800    1.000000    
    471 O2    c    0.398851 *  0.732492 *  0.240509 *  -1.21800    1.000000    
    472 O2    c    0.232295 *  0.399135 *  0.240553 *  -1.21800    1.000000    
    473 O2    c    0.065615 *  0.399137 *  0.240566 *  -1.21800    1.000000    
    474 O2    c    0.898902 *  0.399166 *  0.240561 *  -1.21800    1.000000    
    475 O2    c    0.732193 *  0.399189 *  0.240543 *  -1.21800    1.000000    
    476 O2    c    0.565559 *  0.399199 *  0.240529 *  -1.21800    1.000000    
    477 O2    c    0.398951 *  0.399164 *  0.240536 *  -1.21800    1.000000    
    478 O2    c    0.232276 *  0.065837 *  0.240694 *  -1.21800    1.000000    
    479 O2    c    0.065614 *  0.065826 *  0.240701 *  -1.21800    1.000000    
    480 O2    c    0.898908 *  0.065849 *  0.240678 *  -1.21800    1.000000    
    481 O2    c    0.732221 *  0.065865 *  0.240647 *  -1.21800    1.000000    
    482 O2    c    0.565560 *  0.065866 *  0.240641 *  -1.21800    1.000000    
    483 O2    c    0.398925 *  0.065853 *  0.240664 *  -1.21800    1.000000    
    484 O2    c    0.232257 *  0.732561 *  0.240463 *  -1.21800    1.000000    
    485 O2    c    0.065671 *  0.732570 *  0.240498 *  -1.21800    1.000000    
    486 O2    c    0.898964 *  0.732515 *  0.240571 *  -1.21800    1.000000    
    487 O2    c    0.732224 *  0.732450 *  0.240615 *  -1.21800    1.000000    
    488 O2    c    0.565510 *  0.732441 *  0.240583 *  -1.21800    1.000000    
    489 O2    c    0.315719 *  0.505223 *  0.229333 *  -1.21800    1.000000    
    490 O2    c    0.148924 *  0.171808 *  0.229435 *  -1.21800    1.000000    
    491 O2    c    0.982255 *  0.171806 *  0.229429 *  -1.21800    1.000000    
    492 O2    c    0.815584 *  0.171799 *  0.229410 *  -1.21800    1.000000    
    493 O2    c    0.648897 *  0.171792 *  0.229397 *  -1.21800    1.000000    
    494 O2    c    0.482240 *  0.171791 *  0.229401 *  -1.21800    1.000000    
    495 O2    c    0.315599 *  0.171801 *  0.229421 *  -1.21800    1.000000    
    496 O2    c    0.148902 *  0.838466 *  0.229466 *  -1.21800    1.000000    
    497 O2    c    0.982400 *  0.838499 *  0.229485 *  -1.21800    1.000000    
    498 O2    c    0.815725 *  0.838541 *  0.229471 *  -1.21800    1.000000    
    499 O2    c    0.648941 *  0.838553 *  0.229444 *  -1.21800    1.000000    
    500 O2    c    0.482115 *  0.838543 *  0.229432 *  -1.21800    1.000000    
    501 O2    c    0.315402 *  0.838500 *  0.229443 *  -1.21800    1.000000    
    502 O2    c    0.148931 *  0.505229 *  0.229313 *  -1.21800    1.000000    
    503 O2    c    0.982162 *  0.505210 *  0.229323 *  -1.21800    1.000000    
    504 O2    c    0.815445 *  0.505189 *  0.229354 *  -1.21800    1.000000    
    505 O2    c    0.648865 *  0.505165 *  0.229368 *  -1.21800    1.000000    
    506 O2    c    0.482367 *  0.505179 *  0.229356 *  -1.21800    1.000000    
    507 O2    c    0.315727 *  0.626534 *  0.229291 *  -1.21800    1.000000    
    508 O2    c    0.148935 *  0.293149 *  0.229359 *  -1.21800    1.000000    
    509 O2    c    0.982261 *  0.293145 *  0.229367 *  -1.21800    1.000000    
    510 O2    c    0.815580 *  0.293133 *  0.229370 *  -1.21800    1.000000    
    511 O2    c    0.648907 *  0.293126 *  0.229365 *  -1.21800    1.000000    
    512 O2    c    0.482238 *  0.293135 *  0.229359 *  -1.21800    1.000000    
    513 O2    c    0.315583 *  0.293144 *  0.229357 *  -1.21800    1.000000    
    514 O2    c    0.148897 *  0.959861 *  0.229594 *  -1.21800    1.000000    
    515 O2    c    0.982409 *  0.959848 *  0.229568 *  -1.21800    1.000000    
    516 O2    c    0.815724 *  0.959835 *  0.229489 *  -1.21800    1.000000    
    517 O2    c    0.648932 *  0.959827 *  0.229441 *  -1.21800    1.000000    
    518 O2    c    0.482125 *  0.959816 *  0.229474 *  -1.21800    1.000000    
    519 O2    c    0.315402 *  0.959835 *  0.229551 *  -1.21800    1.000000    
    520 O2    c    0.148928 *  0.626527 *  0.229262 *  -1.21800    1.000000    
    521 O2    c    0.982149 *  0.626532 *  0.229306 *  -1.21800    1.000000    
    522 O2    c    0.815449 *  0.626538 *  0.229378 *  -1.21800    1.000000    
    523 O2    c    0.648863 *  0.626564 *  0.229402 *  -1.21800    1.000000    
    524 O2    c    0.482364 *  0.626567 *  0.229359 *  -1.21800    1.000000    
    525 O2    c    0.399078 *  0.732705 *  0.219853 *  -1.21800    1.000000    
    526 O2    c    0.232230 *  0.399321 *  0.219896 *  -1.21800    1.000000    
    527 O2    c    0.065568 *  0.399255 *  0.219907 *  -1.21800    1.000000    
    528 O2    c    0.898925 *  0.399178 *  0.219902 *  -1.21800    1.000000    
    529 O2    c    0.732288 *  0.399069 *  0.219883 *  -1.21800    1.000000    
    530 O2    c    0.565600 *  0.399018 *  0.219868 *  -1.21800    1.000000    
    531 O2    c    0.398896 *  0.399188 *  0.219878 *  -1.21800    1.000000    
    532 O2    c    0.232180 *  0.065746 *  0.220033 *  -1.21800    1.000000    
    533 O2    c    0.065611 *  0.065766 *  0.220040 *  -1.21800    1.000000    
    534 O2    c    0.899022 *  0.065679 *  0.220020 *  -1.21800    1.000000    
    535 O2    c    0.732320 *  0.065681 *  0.219993 *  -1.21800    1.000000    
    536 O2    c    0.565542 *  0.065641 *  0.219986 *  -1.21800    1.000000    
    537 O2    c    0.398805 *  0.065614 *  0.220007 *  -1.21800    1.000000    
    538 O2    c    0.232264 *  0.732457 *  0.219811 *  -1.21800    1.000000    
    539 O2    c    0.065412 *  0.732493 *  0.219842 *  -1.21800    1.000000    
    540 O2    c    0.898743 *  0.732647 *  0.219913 *  -1.21800    1.000000    
    541 O2    c    0.732237 *  0.732764 *  0.219952 *  -1.21800    1.000000    
    542 O2    c    0.565729 *  0.732862 *  0.219922 *  -1.21800    1.000000    
    543 O176  c    0.566521 *  0.527207 *  0.355472 *  -1.08000    1.000000    
    544 O177  c    0.092161 *  0.925627 *  0.416607 *  -1.08000    1.000000    
    545 O176  c    0.566733 *  0.415574 *  0.351196 *  -1.08000    1.000000    
    546 O177  c    0.216479 *  0.923414 *  0.416632 *  -1.08000    1.000000    
    547 O176  c    0.214130 *  0.893487 *  0.356043 *  -1.08000    1.000000    
    548 O177  c    0.639357 *  0.483871 *  0.413849 *  -1.08000    1.000000    
    549 O176  c    0.089375 *  0.897768 *  0.356067 *  -1.08000    1.000000    
    550 O177  c    0.640770 *  0.371197 *  0.412766 *  -1.08000    1.000000    
    551 O171  c    0.152186 *  0.926385 *  0.442158 *  -2.00000    1.000000    
    552 O171  c    0.652685 *  0.426412 *  0.439277 *  -2.00000    1.000000    
    553 O170  c    0.239534 *  0.785935 *  0.448761 *  -1.08000    1.000000    
    554 O170  c    0.999742 *  0.009392 *  0.435106 *  -1.08000    1.000000    
    555 O170  c    0.306040 *  0.843290 *  0.435974 *  -1.08000    1.000000    
    556 O170  c    0.063600 *  0.066795 *  0.448198 *  -1.08000    1.000000    
    557 O170  c    0.305125 *  0.009447 *  0.435469 *  -1.08000    1.000000    
    558 O170  c    0.999572 *  0.843225 *  0.435268 *  -1.08000    1.000000    
    559 O170  c    0.240330 *  0.066567 *  0.448493 *  -1.08000    1.000000    
    560 O170  c    0.063670 *  0.786242 *  0.448388 *  -1.08000    1.000000    
    561 O170  c    0.151354 *  0.983742 *  0.467630 *  -1.08000    1.000000    
    562 O170  c    0.608620 *  0.426410 *  0.526904 *  -1.08000    1.000000    
    563 O170  c    0.151058 *  0.870519 *  0.467682 *  -1.08000    1.000000    
    564 O170  c    0.732717 *  0.426476 *  0.526527 *  -1.08000    1.000000    
    565 O170  c    0.719241 *  0.424821 *  0.465077 *  -1.08000    1.000000    
    566 O170  c    0.171703 *  0.983539 *  0.528112 *  -1.08000    1.000000    
    567 O170  c    0.595358 *  0.424704 *  0.465617 *  -1.08000    1.000000    
    568 O170  c    0.171483 *  0.870504 *  0.528095 *  -1.08000    1.000000    
    569 O170  c    0.501882 *  0.342486 *  0.446523 *  -1.08000    1.000000    
    570 O170  c    0.741398 *  0.564816 *  0.432355 *  -1.08000    1.000000    
    571 O170  c    0.565276 *  0.286732 *  0.433143 *  -1.08000    1.000000    
    572 O170  c    0.805230 *  0.508676 *  0.445628 *  -1.08000    1.000000    
    573 O170  c    0.741141 *  0.288995 *  0.431776 *  -1.08000    1.000000    
    574 O170  c    0.565971 *  0.567859 *  0.434067 *  -1.08000    1.000000    
    575 O170  c    0.804972 *  0.343075 *  0.445302 *  -1.08000    1.000000    
    576 O170  c    0.501475 *  0.508839 *  0.446903 *  -1.08000    1.000000    
    577 O171  c    0.672457 *  0.426773 *  0.552597 *  -2.00000    1.000000    
    578 O171  c    0.172882 *  0.926792 *  0.553796 *  -2.00000    1.000000    
    579 O170  c    0.760556 *  0.288414 *  0.559173 *  -1.08000    1.000000    
    580 O170  c    0.518777 *  0.510018 *  0.546278 *  -1.08000    1.000000    
    581 O170  c    0.825565 *  0.343288 *  0.545885 *  -1.08000    1.000000    
    582 O170  c    0.585156 *  0.565380 *  0.559343 *  -1.08000    1.000000    
    583 O170  c    0.825476 *  0.510295 *  0.545848 *  -1.08000    1.000000    
    584 O170  c    0.518659 *  0.343587 *  0.546331 *  -1.08000    1.000000    
    585 O170  c    0.760533 *  0.565170 *  0.559145 *  -1.08000    1.000000    
    586 O170  c    0.585214 *  0.288156 *  0.559367 *  -1.08000    1.000000    
    587 O170  c    0.674146 *  0.483328 *  0.578423 *  -1.08000    1.000000    
    588 O170  c    0.121928 *  0.926786 *  0.640814 *  -1.08000    1.000000    
    589 O170  c    0.674121 *  0.370390 *  0.578428 *  -1.08000    1.000000    
    590 O170  c    0.246038 *  0.926809 *  0.640485 *  -1.08000    1.000000    
    591 O170  c    0.236295 *  0.926694 *  0.579395 *  -1.08000    1.000000    
    592 O170  c    0.686450 *  0.483409 *  0.639109 *  -1.08000    1.000000    
    593 O170  c    0.112070 *  0.926702 *  0.579676 *  -1.08000    1.000000    
    594 O170  c    0.686403 *  0.370316 *  0.639108 *  -1.08000    1.000000    
    595 O170  c    0.019481 *  0.843168 *  0.560457 *  -1.08000    1.000000    
    596 O170  c    0.260223 *  0.065708 *  0.547196 *  -1.08000    1.000000    
    597 O170  c    0.084862 *  0.788168 *  0.547234 *  -1.08000    1.000000    
    598 O170  c    0.326883 *  0.009985 *  0.560177 *  -1.08000    1.000000    
    599 O170  c    0.260261 *  0.787959 *  0.547126 *  -1.08000    1.000000    
    600 O170  c    0.084827 *  0.065407 *  0.547267 *  -1.08000    1.000000    
    601 O170  c    0.326791 *  0.843483 *  0.560148 *  -1.08000    1.000000    
    602 O170  c    0.019420 *  0.010323 *  0.560477 *  -1.08000    1.000000    
    603 O171  c    0.186009 *  0.926823 *  0.666487 *  -2.00000    1.000000    
    604 O171  c    0.686316 *  0.426844 *  0.664758 *  -2.00000    1.000000    
    605 O170  c    0.274368 *  0.787699 *  0.672813 *  -1.08000    1.000000    
    606 O170  c    0.032977 *  0.009784 *  0.660059 *  -1.08000    1.000000    
    607 O170  c    0.338419 *  0.843789 *  0.659561 *  -1.08000    1.000000    
    608 O170  c    0.098529 *  0.066252 *  0.673085 *  -1.08000    1.000000    
    609 O170  c    0.338393 *  0.009927 *  0.659557 *  -1.08000    1.000000    
    610 O170  c    0.033016 *  0.843849 *  0.660073 *  -1.08000    1.000000    
    611 O170  c    0.274376 *  0.065956 *  0.672820 *  -1.08000    1.000000    
    612 O170  c    0.098514 *  0.787451 *  0.673116 *  -1.08000    1.000000    
    613 O170  c    0.187781 *  0.983183 *  0.692255 *  -1.08000    1.000000    
    614 O173  c    0.623195 *  0.431030 *  0.750401 *  -0.69000    1.000000    
    615 O170  c    0.187993 *  0.870163 *  0.692304 *  -1.08000    1.000000    
    616 O172  c    0.751889 *  0.430627 *  0.750507 *  -0.69000    1.000000    
    617 H21   c    0.748222 *  0.431438 *  0.758826 *   0.22000    1.000000    
    618 O170  c    0.748597 *  0.426839 *  0.690445 *  -1.08000    1.000000    
    619 O173  c    0.195261 *  0.987032 *  0.752147 *  -0.69000    1.000000    
    620 O170  c    0.624309 *  0.427079 *  0.690458 *  -1.08000    1.000000    
    621 O172  c    0.195612 *  0.869836 *  0.752426 *  -0.69000    1.000000    
    622 H21   c    0.196565 *  0.873609 *  0.760739 *   0.22000    1.000000    
    623 O170  c    0.533490 *  0.343591 *  0.671461 *  -1.08000    1.000000    
    624 O170  c    0.774070 *  0.566578 *  0.658454 *  -1.08000    1.000000    
    625 O170  c    0.598241 *  0.287373 *  0.658315 *  -1.08000    1.000000    
    626 O170  c    0.839284 *  0.509831 *  0.671481 *  -1.08000    1.000000    
    627 O170  c    0.774010 *  0.287075 *  0.658445 *  -1.08000    1.000000    
    628 O170  c    0.598293 *  0.566349 *  0.658311 *  -1.08000    1.000000    
    629 O170  c    0.839269 *  0.343836 *  0.671464 *  -1.08000    1.000000    
    630 O170  c    0.533423 *  0.510084 *  0.671438 *  -1.08000    1.000000    
    631 C912  c    0.593653 *  0.508815 *  0.378748 *  -0.07025    1.000000    
    632 C912  c    0.086041 *  0.917240 *  0.392418 *  -0.07025    1.000000    
    633 C912  c    0.595408 *  0.387201 *  0.376198 *  -0.07025    1.000000    
    634 C912  c    0.221118 *  0.914245 *  0.392289 *  -0.07025    1.000000    
    635 C912  c    0.220411 *  0.908355 *  0.380367 *  -0.07025    1.000000    
    636 C912  c    0.609474 *  0.500645 *  0.390399 *  -0.07025    1.000000    
    637 C912  c    0.085325 *  0.911512 *  0.380495 *  -0.07025    1.000000    
    638 C912  c    0.610961 *  0.379079 *  0.387921 *  -0.07025    1.000000    
    639 C916  c    0.569983 *  0.464914 *  0.358727 *   1.07050    1.000000    
    640 C917  c    0.154341 *  0.924012 *  0.411304 *   1.07050    1.000000    
    641 C916  c    0.151856 *  0.899549 *  0.361479 *   1.07050    1.000000    
    642 C917  c    0.635246 *  0.429280 *  0.407974 *   1.07050    1.000000    
    643 C902  c    0.586618 *  0.452356 *  0.371563 *   0.00500    1.000000    
    644 C902  c    0.153896 *  0.918440 *  0.398254 *   0.00500    1.000000    
    645 C902  c    0.152525 *  0.906823 *  0.374520 *   0.00500    1.000000    
    646 C902  c    0.618162 *  0.435886 *  0.395049 *   0.00500    1.000000    
    647 C912  c    0.341108 *  0.673674 *  0.448740 *  -0.07025    1.000000    
    648 C912  c    0.891871 *  0.119856 *  0.433023 *  -0.07025    1.000000    
    649 C912  c    0.415482 *  0.733690 *  0.434802 *  -0.07025    1.000000    
    650 C912  c    0.962288 *  0.179366 *  0.447497 *  -0.07025    1.000000    
    651 C912  c    0.414376 *  0.119352 *  0.433967 *  -0.07025    1.000000    
    652 C912  c    0.891554 *  0.732665 *  0.433441 *  -0.07025    1.000000    
    653 C912  c    0.342449 *  0.178427 *  0.448312 *  -0.07025    1.000000    
    654 C912  c    0.963164 *  0.673399 *  0.447811 *  -0.07025    1.000000    
    655 C912  c    0.159060 *  0.988825 *  0.491910 *  -0.07025    1.000000    
    656 C912  c    0.598629 *  0.425620 *  0.502426 *  -0.07025    1.000000    
    657 C912  c    0.158757 *  0.865638 *  0.491899 *  -0.07025    1.000000    
    658 C912  c    0.733083 *  0.425707 *  0.501656 *  -0.07025    1.000000    
    659 C912  c    0.730051 *  0.425320 *  0.489648 *  -0.07025    1.000000    
    660 C912  c    0.163706 *  0.988760 *  0.503848 *  -0.07025    1.000000    
    661 C912  c    0.595599 *  0.425228 *  0.490422 *  -0.07025    1.000000    
    662 C912  c    0.163414 *  0.865573 *  0.503835 *  -0.07025    1.000000    
    663 C912  c    0.392688 *  0.232744 *  0.447947 *  -0.07025    1.000000    
    664 C912  c    0.842107 *  0.677824 *  0.432870 *  -0.07025    1.000000    
    665 C912  c    0.464454 *  0.173796 *  0.433566 *  -0.07025    1.000000    
    666 C912  c    0.913650 *  0.618611 *  0.447254 *  -0.07025    1.000000    
    667 C912  c    0.842220 *  0.174552 *  0.432350 *  -0.07025    1.000000    
    668 C912  c    0.465472 *  0.679214 *  0.434499 *  -0.07025    1.000000    
    669 C912  c    0.912466 *  0.233880 *  0.446865 *  -0.07025    1.000000    
    670 C912  c    0.391154 *  0.619174 *  0.448441 *  -0.07025    1.000000    
    671 C913  c    0.296829 *  0.790973 *  0.442316 *   1.07050    1.000000    
    672 C913  c    0.007883 *  0.061963 *  0.441417 *   1.07050    1.000000    
    673 C913  c    0.296694 *  0.061736 *  0.441844 *   1.07050    1.000000    
    674 C913  c    0.007811 *  0.790911 *  0.441638 *   1.07050    1.000000    
    675 C913  c    0.151731 *  0.927211 *  0.472969 *   1.07050    1.000000    
    676 C913  c    0.669957 *  0.426305 *  0.521326 *   1.07050    1.000000    
    677 C913  c    0.658315 *  0.424702 *  0.470751 *   1.07050    1.000000    
    678 C913  c    0.170776 *  0.927052 *  0.522776 *   1.07050    1.000000    
    679 C913  c    0.510001 *  0.290648 *  0.440026 *   1.07050    1.000000    
    680 C913  c    0.797393 *  0.560337 *  0.439090 *   1.07050    1.000000    
    681 C913  c    0.796887 *  0.292228 *  0.438590 *   1.07050    1.000000    
    682 C913  c    0.509989 *  0.562132 *  0.440767 *   1.07050    1.000000    
    683 C902  c    0.352822 *  0.731278 *  0.441932 *   0.00500    1.000000    
    684 C902  c    0.952359 *  0.121899 *  0.440604 *   0.00500    1.000000    
    685 C902  c    0.352860 *  0.121317 *  0.441342 *   0.00500    1.000000    
    686 C902  c    0.952508 *  0.730813 *  0.440925 *   0.00500    1.000000    
    687 C902  c    0.156600 *  0.927255 *  0.486015 *   0.00500    1.000000    
    688 C902  c    0.667318 *  0.425865 *  0.508090 *   0.00500    1.000000    
    689 C902  c    0.661336 *  0.425080 *  0.483985 *   0.00500    1.000000    
    690 C902  c    0.165864 *  0.927136 *  0.509731 *   0.00500    1.000000    
    691 C902  c    0.454083 *  0.230876 *  0.440548 *   0.00500    1.000000    
    692 C902  c    0.852718 *  0.620438 *  0.439766 *   0.00500    1.000000    
    693 C902  c    0.852066 *  0.231949 *  0.439274 *   0.00500    1.000000    
    694 C902  c    0.453769 *  0.621595 *  0.441295 *   0.00500    1.000000    
    695 C912  c    0.859857 *  0.177508 *  0.560182 *  -0.07025    1.000000    
    696 C912  c    0.408972 *  0.621424 *  0.546004 *  -0.07025    1.000000    
    697 C912  c    0.936238 *  0.231399 *  0.545798 *  -0.07025    1.000000    
    698 C912  c    0.485722 *  0.676891 *  0.560183 *  -0.07025    1.000000    
    699 C912  c    0.936193 *  0.622172 *  0.545757 *  -0.07025    1.000000    
    700 C912  c    0.408868 *  0.232199 *  0.546074 *  -0.07025    1.000000    
    701 C912  c    0.859882 *  0.676043 *  0.560152 *  -0.07025    1.000000    
    702 C912  c    0.485819 *  0.176626 *  0.560215 *  -0.07025    1.000000    
    703 C912  c    0.679132 *  0.488405 *  0.602795 *  -0.07025    1.000000    
    704 C912  c    0.112791 *  0.926747 *  0.616380 *  -0.07025    1.000000    
    705 C912  c    0.679093 *  0.365341 *  0.602795 *  -0.07025    1.000000    
    706 C912  c    0.247492 *  0.926756 *  0.615796 *  -0.07025    1.000000    
    707 C912  c    0.245181 *  0.926731 *  0.603803 *  -0.07025    1.000000    
    708 C912  c    0.681883 *  0.488403 *  0.614757 *  -0.07025    1.000000    
    709 C912  c    0.110480 *  0.926725 *  0.604387 *  -0.07025    1.000000    
    710 C912  c    0.681841 *  0.365337 *  0.614757 *  -0.07025    1.000000    
    711 C912  c    0.909096 *  0.731120 *  0.560590 *  -0.07025    1.000000    
    712 C912  c    0.359615 *  0.177165 *  0.546366 *  -0.07025    1.000000    
    713 C912  c    0.985440 *  0.677224 *  0.546202 *  -0.07025    1.000000    
    714 C912  c    0.436587 *  0.121568 *  0.560503 *  -0.07025    1.000000    
    715 C912  c    0.359703 *  0.676452 *  0.546294 *  -0.07025    1.000000    
    716 C912  c    0.985458 *  0.176329 *  0.546241 *  -0.07025    1.000000    
    717 C912  c    0.436471 *  0.731937 *  0.560468 *  -0.07025    1.000000    
    718 C912  c    0.909042 *  0.122411 *  0.560618 *  -0.07025    1.000000    
    719 C913  c    0.817069 *  0.292204 *  0.552549 *   1.07050    1.000000    
    720 C913  c    0.528064 *  0.561403 *  0.552841 *   1.07050    1.000000    
    721 C913  c    0.817008 *  0.561385 *  0.552513 *   1.07050    1.000000    
    722 C913  c    0.528029 *  0.292177 *  0.552885 *   1.07050    1.000000    
    723 C913  c    0.674781 *  0.426867 *  0.583775 *   1.07050    1.000000    
    724 C913  c    0.183365 *  0.926788 *  0.635279 *   1.07050    1.000000    
    725 C913  c    0.174712 *  0.926694 *  0.584899 *   1.07050    1.000000    
    726 C913  c    0.686075 *  0.426864 *  0.633773 *   1.07050    1.000000    
    727 C913  c    0.028208 *  0.791962 *  0.553828 *   1.07050    1.000000    
    728 C913  c    0.317428 *  0.061590 *  0.553671 *   1.07050    1.000000    
    729 C913  c    0.317404 *  0.791978 *  0.553617 *   1.07050    1.000000    
    730 C913  c    0.028156 *  0.061565 *  0.553857 *   1.07050    1.000000    
    731 C902  c    0.872908 *  0.232330 *  0.552792 *   0.00500    1.000000    
    732 C902  c    0.472441 *  0.621337 *  0.552969 *   0.00500    1.000000    
    733 C902  c    0.872882 *  0.621238 *  0.552756 *   0.00500    1.000000    
    734 C902  c    0.472426 *  0.232235 *  0.553018 *   0.00500    1.000000    
    735 C902  c    0.677739 *  0.426874 *  0.596869 *   0.00500    1.000000    
    736 C902  c    0.181253 *  0.926763 *  0.622094 *   0.00500    1.000000    
    737 C902  c    0.176724 *  0.926717 *  0.598087 *   0.00500    1.000000    
    738 C902  c    0.683222 *  0.426868 *  0.620681 *   0.00500    1.000000    
    739 C902  c    0.972409 *  0.732052 *  0.553591 *   0.00500    1.000000    
    740 C902  c    0.373025 *  0.121539 *  0.553558 *   0.00500    1.000000    
    741 C902  c    0.373002 *  0.732022 *  0.553502 *   0.00500    1.000000    
    742 C902  c    0.972375 *  0.121483 *  0.553624 *   0.00500    1.000000    
    743 C912  c    0.374802 *  0.675697 *  0.672816 *  -0.07025    1.000000    
    744 C912  c    0.924081 *  0.119971 *  0.658866 *  -0.07025    1.000000    
    745 C912  c    0.448080 *  0.733282 *  0.658452 *  -0.07025    1.000000    
    746 C912  c    0.997879 *  0.178681 *  0.673043 *  -0.07025    1.000000    
    747 C912  c    0.448053 *  0.120446 *  0.658456 *  -0.07025    1.000000    
    748 C912  c    0.924147 *  0.733671 *  0.658879 *  -0.07025    1.000000    
    749 C912  c    0.374850 *  0.177944 *  0.672838 *  -0.07025    1.000000    
    750 C912  c    0.997886 *  0.674987 *  0.673067 *  -0.07025    1.000000    
    751 C912  c    0.190876 *  0.988505 *  0.716678 *  -0.07025    1.000000    
    752 C912  c    0.620015 *  0.428906 *  0.726904 *  -0.07025    1.000000    
    753 C912  c    0.191158 *  0.865572 *  0.716733 *  -0.07025    1.000000    
    754 C912  c    0.755115 *  0.428540 *  0.726787 *  -0.07025    1.000000    
    755 C912  c    0.754534 *  0.427857 *  0.714809 *  -0.07025    1.000000    
    756 C912  c    0.192487 *  0.988712 *  0.728652 *  -0.07025    1.000000    
    757 C912  c    0.619560 *  0.428204 *  0.714927 *  -0.07025    1.000000    
    758 C912  c    0.192782 *  0.865665 *  0.728710 *  -0.07025    1.000000    
    759 C912  c    0.424465 *  0.232750 *  0.672647 *  -0.07025    1.000000    
    760 C912  c    0.874478 *  0.678950 *  0.658598 *  -0.07025    1.000000    
    761 C912  c    0.497730 *  0.175210 *  0.658276 *  -0.07025    1.000000    
    762 C912  c    0.948213 *  0.620252 *  0.672784 *  -0.07025    1.000000    
    763 C912  c    0.874410 *  0.174691 *  0.658587 *  -0.07025    1.000000    
    764 C912  c    0.497760 *  0.678520 *  0.658269 *  -0.07025    1.000000    
    765 C912  c    0.948200 *  0.233412 *  0.672763 *  -0.07025    1.000000    
    766 C912  c    0.424414 *  0.620892 *  0.672620 *  -0.07025    1.000000    
    767 C913  c    0.330336 *  0.792054 *  0.666081 *   1.07050    1.000000    
    768 C913  c    0.041863 *  0.061742 *  0.666496 *   1.07050    1.000000    
    769 C913  c    0.330340 *  0.061628 *  0.666086 *   1.07050    1.000000    
    770 C913  c    0.041883 *  0.791924 *  0.666519 *   1.07050    1.000000    
    771 C913  c    0.188424 *  0.926755 *  0.697625 *   1.07050    1.000000    
    772 C914  c    0.687779 *  0.430316 *  0.745929 *   1.07050    1.000000    
    773 C913  c    0.686481 *  0.427037 *  0.695782 *   1.07050    1.000000    
    774 C914  c    0.194960 *  0.927982 *  0.747761 *   1.07050    1.000000    
    775 C913  c    0.542009 *  0.291690 *  0.664995 *   1.07050    1.000000    
    776 C913  c    0.830491 *  0.562001 *  0.665092 *   1.07050    1.000000    
    777 C913  c    0.830450 *  0.291652 *  0.665079 *   1.07050    1.000000    
    778 C913  c    0.541994 *  0.561999 *  0.664977 *   1.07050    1.000000    
    779 C902  c    0.386149 *  0.732224 *  0.665743 *   0.00500    1.000000    
    780 C902  c    0.986237 *  0.121634 *  0.666106 *   0.00500    1.000000    
    781 C902  c    0.386157 *  0.121459 *  0.665754 *   0.00500    1.000000    
    782 C902  c    0.986270 *  0.732023 *  0.666126 *   0.00500    1.000000    
    783 C902  c    0.190201 *  0.926949 *  0.710753 *   0.00500    1.000000    
    784 C902  c    0.687770 *  0.429114 *  0.732805 *   0.00500    1.000000    
    785 C902  c    0.686819 *  0.427705 *  0.708913 *   0.00500    1.000000    
    786 C902  c    0.193415 *  0.927306 *  0.734639 *   0.00500    1.000000    
    787 C902  c    0.486354 *  0.231741 *  0.665347 *   0.00500    1.000000    
    788 C902  c    0.886105 *  0.621895 *  0.665530 *   0.00500    1.000000    
    789 C902  c    0.886065 *  0.231757 *  0.665516 *   0.00500    1.000000    
    790 C902  c    0.486344 *  0.621948 *  0.665328 *   0.00500    1.000000    
    791 H915  c    0.586896 *  0.559779 *  0.375106 *   0.11250    1.000000    
    792 H915  c    0.034016 *  0.920780 *  0.397320 *   0.11250    1.000000    
    793 H915  c    0.590246 *  0.342545 *  0.370649 *   0.11250    1.000000    
    794 H915  c    0.273680 *  0.915519 *  0.397087 *   0.11250    1.000000    
    795 H915  c    0.272572 *  0.905129 *  0.375505 *   0.11250    1.000000    
    796 H915  c    0.615190 *  0.544796 *  0.396071 *   0.11250    1.000000    
    797 H915  c    0.032625 *  0.910522 *  0.375739 *   0.11250    1.000000    
    798 H915  c    0.617905 *  0.328350 *  0.391642 *   0.11250    1.000000    
    799 H915  c    0.291899 *  0.671940 *  0.454317 *   0.11250    1.000000    
    800 H915  c    0.884034 *  0.074915 *  0.427602 *   0.11250    1.000000    
    801 H915  c    0.424791 *  0.778732 *  0.429462 *   0.11250    1.000000    
    802 H915  c    0.009725 *  0.180901 *  0.453430 *   0.11250    1.000000    
    803 H915  c    0.422665 *  0.074716 *  0.428489 *   0.11250    1.000000    
    804 H915  c    0.883130 *  0.777574 *  0.428034 *   0.11250    1.000000    
    805 H915  c    0.294190 *  0.179870 *  0.454085 *   0.11250    1.000000    
    806 H915  c    0.011020 *  0.672093 *  0.453665 *   0.11250    1.000000    
    807 H915  c    0.157333 *  0.036467 *  0.487051 *   0.11250    1.000000    
    808 H915  c    0.547349 *  0.425745 *  0.507547 *   0.11250    1.000000    
    809 H915  c    0.156795 *  0.818047 *  0.487027 *   0.11250    1.000000    
    810 H915  c    0.786771 *  0.425901 *  0.506150 *   0.11250    1.000000    
    811 H915  c    0.781334 *  0.425212 *  0.484527 *   0.11250    1.000000    
    812 H915  c    0.165683 *  0.036352 *  0.508720 *   0.11250    1.000000    
    813 H915  c    0.541913 *  0.425048 *  0.485927 *   0.11250    1.000000    
    814 H915  c    0.165162 *  0.817932 *  0.508695 *   0.11250    1.000000    
    815 H915  c    0.384405 *  0.277368 *  0.453426 *   0.11250    1.000000    
    816 H915  c    0.794253 *  0.679162 *  0.427017 *   0.11250    1.000000    
    817 H915  c    0.512636 *  0.172381 *  0.427778 *   0.11250    1.000000    
    818 H915  c    0.922021 *  0.573734 *  0.452671 *   0.11250    1.000000    
    819 H915  c    0.794844 *  0.172992 *  0.426407 *   0.11250    1.000000    
    820 H915  c    0.514664 *  0.680915 *  0.428918 *   0.11250    1.000000    
    821 H915  c    0.920217 *  0.278781 *  0.452298 *   0.11250    1.000000    
    822 H915  c    0.381805 *  0.574131 *  0.453779 *   0.11250    1.000000    
    823 H915  c    0.810081 *  0.178527 *  0.565644 *   0.11250    1.000000    
    824 H915  c    0.398390 *  0.578018 *  0.540342 *   0.11250    1.000000    
    825 H915  c    0.946793 *  0.274148 *  0.539993 *   0.11250    1.000000    
    826 H915  c    0.535623 *  0.676503 *  0.565619 *   0.11250    1.000000    
    827 H915  c    0.946712 *  0.579439 *  0.539948 *   0.11250    1.000000    
    828 H915  c    0.398204 *  0.275650 *  0.540425 *   0.11250    1.000000    
    829 H915  c    0.810125 *  0.675027 *  0.565618 *   0.11250    1.000000    
    830 H915  c    0.535795 *  0.176981 *  0.565635 *   0.11250    1.000000    
    831 H915  c    0.678040 *  0.536066 *  0.597936 *   0.11250    1.000000    
    832 H915  c    0.061282 *  0.926753 *  0.621447 *   0.11250    1.000000    
    833 H915  c    0.677970 *  0.317683 *  0.597936 *   0.11250    1.000000    
    834 H915  c    0.300843 *  0.926769 *  0.620385 *   0.11250    1.000000    
    835 H915  c    0.296694 *  0.926725 *  0.598738 *   0.11250    1.000000    
    836 H915  c    0.682981 *  0.536060 *  0.619617 *   0.11250    1.000000    
    837 H915  c    0.057125 *  0.926715 *  0.599799 *   0.11250    1.000000    
    838 H915  c    0.682907 *  0.317678 *  0.619616 *   0.11250    1.000000    
    839 H915  c    0.898567 *  0.773862 *  0.566397 *   0.11250    1.000000    
    840 H915  c    0.309638 *  0.176810 *  0.540947 *   0.11250    1.000000    
    841 H915  c    0.035203 *  0.678235 *  0.540737 *   0.11250    1.000000    
    842 H915  c    0.447263 *  0.078107 *  0.566149 *   0.11250    1.000000    
    843 H915  c    0.309800 *  0.676839 *  0.540858 *   0.11250    1.000000    
    844 H915  c    0.035238 *  0.175315 *  0.540780 *   0.11250    1.000000    
    845 H915  c    0.447063 *  0.775352 *  0.566128 *   0.11250    1.000000    
    846 H915  c    0.898476 *  0.079652 *  0.566420 *   0.11250    1.000000    
    847 H915  c    0.326161 *  0.675057 *  0.678516 *   0.11250    1.000000    
    848 H915  c    0.914897 *  0.075333 *  0.653424 *   0.11250    1.000000    
    849 H915  c    0.457137 *  0.777469 *  0.652901 *   0.11250    1.000000    
    850 H915  c    0.046710 *  0.179783 *  0.678703 *   0.11250    1.000000    
    851 H915  c    0.457083 *  0.076294 *  0.652895 *   0.11250    1.000000    
    852 H915  c    0.914985 *  0.778301 *  0.653435 *   0.11250    1.000000    
    853 H915  c    0.326242 *  0.178551 *  0.678546 *   0.11250    1.000000    
    854 H915  c    0.046697 *  0.673895 *  0.678731 *   0.11250    1.000000    
    855 H915  c    0.190123 *  0.036129 *  0.711804 *   0.11250    1.000000    
    856 H915  c    0.567621 *  0.429333 *  0.731762 *   0.11250    1.000000    
    857 H915  c    0.190624 *  0.817836 *  0.711889 *   0.11250    1.000000    
    858 H915  c    0.807992 *  0.428679 *  0.731511 *   0.11250    1.000000    
    859 H915  c    0.806671 *  0.427442 *  0.709893 *   0.11250    1.000000    
    860 H915  c    0.193025 *  0.036678 *  0.733439 *   0.11250    1.000000    
    861 H915  c    0.566992 *  0.428063 *  0.710123 *   0.11250    1.000000    
    862 H915  c    0.193544 *  0.817754 *  0.733504 *   0.11250    1.000000    
    863 H915  c    0.415410 *  0.276913 *  0.678204 *   0.11250    1.000000    
    864 H915  c    0.825679 *  0.680030 *  0.652931 *   0.11250    1.000000    
    865 H915  c    0.546354 *  0.174600 *  0.652572 *   0.11250    1.000000    
    866 H915  c    0.957398 *  0.575612 *  0.678225 *   0.11250    1.000000    
    867 H915  c    0.825588 *  0.173602 *  0.652925 *   0.11250    1.000000    
    868 H915  c    0.546414 *  0.679165 *  0.652571 *   0.11250    1.000000    
    869 H915  c    0.957406 *  0.278056 *  0.678203 *   0.11250    1.000000    
    870 H915  c    0.415332 *  0.576690 *  0.678167 *   0.11250    1.000000    
    871 Zn172 c    0.151389 *  0.841062 *  0.451928 *   2.00000    1.000000    
    872 Zn172 c    0.058081 *  0.926318 *  0.432225 *   2.00000    1.000000    
    873 Zn172 c    0.247404 *  0.925875 *  0.432484 *   2.00000    1.000000    
    874 Zn172 c    0.151686 *  0.012254 *  0.451808 *   2.00000    1.000000    
    875 Zn172 c    0.747814 *  0.425413 *  0.448943 *   2.00000    1.000000    
    876 Zn172 c    0.650918 *  0.512029 *  0.429723 *   2.00000    1.000000    
    877 Zn172 c    0.560372 *  0.425242 *  0.449699 *   2.00000    1.000000    
    878 Zn172 c    0.650980 *  0.342429 *  0.428932 *   2.00000    1.000000    
    879 Zn172 c    0.673061 *  0.342210 *  0.562532 *   2.00000    1.000000    
    880 Zn172 c    0.577285 *  0.426728 *  0.542877 *   2.00000    1.000000    
    881 Zn172 c    0.766369 *  0.426739 *  0.542512 *   2.00000    1.000000    
    882 Zn172 c    0.673044 *  0.511381 *  0.562519 *   2.00000    1.000000    
    883 Zn172 c    0.268139 *  0.926733 *  0.563513 *   2.00000    1.000000    
    884 Zn172 c    0.172496 *  0.011626 *  0.543958 *   2.00000    1.000000    
    885 Zn172 c    0.078537 *  0.926745 *  0.563777 *   2.00000    1.000000    
    886 Zn172 c    0.172464 *  0.842082 *  0.543927 *   2.00000    1.000000    
    887 Zn172 c    0.186708 *  0.841858 *  0.676361 *   2.00000    1.000000    
    888 Zn172 c    0.091079 *  0.926812 *  0.656757 *   2.00000    1.000000    
    889 Zn172 c    0.279612 *  0.926844 *  0.656382 *   2.00000    1.000000    
    890 Zn172 c    0.186664 *  0.011867 *  0.676350 *   2.00000    1.000000    
    891 Zn172 c    0.780808 *  0.426811 *  0.674599 *   2.00000    1.000000    
    892 Zn172 c    0.686351 *  0.512072 *  0.654957 *   2.00000    1.000000    
    893 Zn172 c    0.591774 *  0.426867 *  0.674613 *   2.00000    1.000000    
    894 Zn172 c    0.686305 *  0.341613 *  0.654955 *   2.00000    1.000000    
--------------------------------------------------------------------------------



  Molecule list generated from bond lengths :

  Total number of molecules =    22

--------------------------------------------------------------------------------
Molecule No./:  Atoms
Periodicity  :  
--------------------------------------------------------------------------------
     1  0    : O3   c   183 H22  c   184
     2  0    : O3   c   195 H22  c   196
     3  0    : O176 c   543 O176 c   545 O177 c   548 O177 c   550 C912 c   631
             : C912 c   633 C912 c   636 C912 c   638 C916 c   639 C917 c   642
             : C902 c   643 C902 c   646 H915 c   791 H915 c   793 H915 c   796
             : H915 c   798
     4  0    : O177 c   544 O177 c   546 O176 c   547 O176 c   549 C912 c   632
             : C912 c   634 C912 c   635 C912 c   637 C917 c   640 C916 c   641
             : C902 c   644 C902 c   645 H915 c   792 H915 c   794 H915 c   795
             : H915 c   797
     5  0    : O170 c   553 O170 c   555 O170 c   574 O170 c   576 C912 c   647
             : C912 c   649 C912 c   668 C912 c   670 C913 c   671 C913 c   682
             : C902 c   683 C902 c   694 H915 c   799 H915 c   801 H915 c   820
             : H915 c   822
     6  0    : O170 c   554 O170 c   556 O170 c   573 O170 c   575 C912 c   648
             : C912 c   650 C912 c   667 C912 c   669 C913 c   672 C913 c   681
             : C902 c   684 C902 c   693 H915 c   800 H915 c   802 H915 c   819
             : H915 c   821
     7  0    : O170 c   557 O170 c   559 O170 c   569 O170 c   571 C912 c   651
             : C912 c   653 C912 c   663 C912 c   665 C913 c   673 C913 c   679
             : C902 c   685 C902 c   691 H915 c   803 H915 c   805 H915 c   815
             : H915 c   817
     8  0    : O170 c   558 O170 c   560 O170 c   570 O170 c   572 C912 c   652
             : C912 c   654 C912 c   664 C912 c   666 C913 c   674 C913 c   680
             : C902 c   686 C902 c   692 H915 c   804 H915 c   806 H915 c   816
             : H915 c   818
     9  0    : O170 c   561 O170 c   563 O170 c   566 O170 c   568 C912 c   655
             : C912 c   657 C912 c   660 C912 c   662 C913 c   675 C913 c   678
             : C902 c   687 C902 c   690 H915 c   807 H915 c   809 H915 c   812
             : H915 c   814
    10  0    : O170 c   562 O170 c   564 O170 c   565 O170 c   567 C912 c   656
             : C912 c   658 C912 c   659 C912 c   661 C913 c   676 C913 c   677
             : C902 c   688 C902 c   689 H915 c   808 H915 c   810 H915 c   811
             : H915 c   813
    11  0    : O170 c   579 O170 c   581 O170 c   600 O170 c   602 C912 c   695
             : C912 c   697 C912 c   716 C912 c   718 C913 c   719 C913 c   730
             : C902 c   731 C902 c   742 H915 c   823 H915 c   825 H915 c   844
             : H915 c   846
    12  0    : O170 c   580 O170 c   582 O170 c   599 O170 c   601 C912 c   696
             : C912 c   698 C912 c   715 C912 c   717 C913 c   720 C913 c   729
             : C902 c   732 C902 c   741 H915 c   824 H915 c   826 H915 c   843
             : H915 c   845
    13  0    : O170 c   583 O170 c   585 O170 c   595 O170 c   597 C912 c   699
             : C912 c   701 C912 c   711 C912 c   713 C913 c   721 C913 c   727
             : C902 c   733 C902 c   739 H915 c   827 H915 c   829 H915 c   839
             : H915 c   841
    14  0    : O170 c   584 O170 c   586 O170 c   596 O170 c   598 C912 c   700
             : C912 c   702 C912 c   712 C912 c   714 C913 c   722 C913 c   728
             : C902 c   734 C902 c   740 H915 c   828 H915 c   830 H915 c   840
             : H915 c   842
    15  0    : O170 c   587 O170 c   589 O170 c   592 O170 c   594 C912 c   703
             : C912 c   705 C912 c   708 C912 c   710 C913 c   723 C913 c   726
             : C902 c   735 C902 c   738 H915 c   831 H915 c   833 H915 c   836
             : H915 c   838
    16  0    : O170 c   588 O170 c   590 O170 c   591 O170 c   593 C912 c   704
             : C912 c   706 C912 c   707 C912 c   709 C913 c   724 C913 c   725
             : C902 c   736 C902 c   737 H915 c   832 H915 c   834 H915 c   835
             : H915 c   837
    17  0    : O170 c   605 O170 c   607 O170 c   628 O170 c   630 C912 c   743
             : C912 c   745 C912 c   764 C912 c   766 C913 c   767 C913 c   778
             : C902 c   779 C902 c   790 H915 c   847 H915 c   849 H915 c   868
             : H915 c   870
    18  0    : O170 c   606 O170 c   608 O170 c   627 O170 c   629 C912 c   744
             : C912 c   746 C912 c   763 C912 c   765 C913 c   768 C913 c   777
             : C902 c   780 C902 c   789 H915 c   848 H915 c   850 H915 c   867
             : H915 c   869
    19  0    : O170 c   609 O170 c   611 O170 c   623 O170 c   625 C912 c   747
             : C912 c   749 C912 c   759 C912 c   761 C913 c   769 C913 c   775
             : C902 c   781 C902 c   787 H915 c   851 H915 c   853 H915 c   863
             : H915 c   865
    20  0    : O170 c   610 O170 c   612 O170 c   624 O170 c   626 C912 c   748
             : C912 c   750 C912 c   760 C912 c   762 C913 c   770 C913 c   776
             : C902 c   782 C902 c   788 H915 c   852 H915 c   854 H915 c   864
             : H915 c   866
    21  0    : O170 c   613 O170 c   615 O173 c   619 O172 c   621 H21  c   622
             : C912 c   751 C912 c   753 C912 c   756 C912 c   758 C913 c   771
             : C914 c   774 C902 c   783 C902 c   786 H915 c   855 H915 c   857
             : H915 c   860 H915 c   862
[...]
   640 C917  c    -17.470204           0.007817   -0.437056   -6.903998
   641 C916  c    -16.396309           0.188390    0.594997    6.166562
   642 C917  c    -17.445643          -1.151648    0.370876   -6.956848
   643 C902  c      1.821590          -0.938571    0.579684   -3.975321
   644 C902  c      1.287814           0.048320    0.166524    3.687303
   645 C902  c      1.566565           0.021407   -0.565238   -3.943776
   646 C902  c      1.285066           0.539244   -0.318117    3.501632
   647 C912  c      1.095686          -1.084147    0.402660    0.510232
   648 C912  c      1.052680           0.295143   -1.174298   -0.468655
   649 C912  c      1.112030          -0.280035    1.178077   -0.493666
   650 C912  c      1.061752           1.066143   -0.422783    0.566550
   651 C912  c      1.058712          -0.294864   -1.175728   -0.488128
   652 C912  c      1.104203           0.291318    1.172035   -0.490529
   653 C912  c      1.061269          -1.072756   -0.417109    0.542804
   654 C912  c      1.089782           1.061788    0.420659    0.550911
   655 C912  c      1.072287          -0.046868    0.700738   -1.052440
   656 C912  c      1.071051          -0.690727    0.003253    1.065057
   657 C912  c      1.071359          -0.050455   -0.698407   -1.051347
   658 C912  c      1.090165           0.788276    0.005358    1.031265
   659 C912  c      1.075369           0.695807   -0.001491   -1.066018
   660 C912  c      1.070568           0.051366    0.698811    1.050420
   661 C912  c      1.085628          -0.784176   -0.003635   -1.030111
   662 C912  c      1.071178           0.047883   -0.700319    1.050402
   663 C912  c      1.087481           0.274816    1.185909    0.502355
   664 C912  c      1.084956          -1.048899   -0.439298   -0.564486
   665 C912  c      1.031585           1.056061    0.436895   -0.530424
   666 C912  c      1.114257          -0.274255   -1.186586    0.479307
   667 C912  c      1.039166          -1.058905    0.441983   -0.554606
   668 C912  c      1.080272           1.054354   -0.422998   -0.527382
   669 C912  c      1.076366          -0.278872    1.178355    0.482100
   670 C912  c      1.129851           0.257126   -1.204961    0.478271
   671 C913  c    -17.491237           4.733614   -5.330073   -0.275841
   672 C913  c    -17.501147          -4.657230    5.363976   -0.464379
   673 C913  c    -17.502707           4.731867    5.312889   -0.334749
   674 C913  c    -17.486855          -4.662426   -5.374710   -0.443878
   675 C913  c    -17.451561           0.327006    0.009626    6.894431
   676 C913  c    -17.469859          -0.145232   -0.029916   -7.023173
   677 C913  c    -17.483044           0.193256    0.018084    7.045968
   678 C913  c    -17.466712          -0.335842    0.005153   -6.915854
   679 C913  c    -17.505212          -4.697598   -5.337184    0.336384
   680 C913  c    -17.473617           4.643997    5.376961    0.388984
   681 C913  c    -17.496006           4.603664   -5.407834    0.333170
   682 C913  c    -17.483893          -4.752483    5.289289    0.418315
   683 C902  c      1.224806          -2.306666    2.691970    0.046508
   684 C902  c      1.187034           2.299701   -2.708841    0.166958
   685 C902  c      1.187384          -2.310914   -2.697512    0.085950
   686 C902  c      1.221299           2.288726    2.710566    0.132147
   687 C902  c      1.272726          -0.167128    0.000843   -3.717602
   688 C902  c      1.223888           0.142927    0.014950    3.594408
   689 C902  c      1.222405          -0.148667   -0.007866   -3.591694
   690 C902  c      1.270581           0.173103   -0.003787    3.715812
   691 C902  c      1.186764           2.285167    2.717592   -0.083100
   692 C902  c      1.225457          -2.278811   -2.722488   -0.132932
   693 C902  c      1.188618          -2.291075    2.718480   -0.130690
   694 C902  c      1.226946           2.271680   -2.722076   -0.100283
   695 C912  c      1.038799          -1.054792    0.445847    0.467039
   696 C912  c      1.100325           0.251676   -1.184899   -0.558281
   697 C912  c      1.103078          -0.250207    1.186228   -0.581436
   698 C912  c      1.047933           1.062290   -0.445354    0.475934
   699 C912  c      1.103777          -0.250595   -1.185973   -0.582033
   700 C912  c      1.099136           0.250461    1.185868   -0.556347
   701 C912  c      1.039209          -1.054908   -0.445748    0.467209
   702 C912  c      1.047420           1.063312    0.444584    0.474206
   703 C912  c      1.072317          -0.029125    0.708109   -1.051427
   704 C912  c      1.064111          -0.691767    0.000099    1.060377
   705 C912  c      1.072011          -0.029432   -0.707665   -1.051307
   706 C912  c      1.075172           0.759727    0.000149    1.037782
   707 C912  c      1.063744           0.691210   -0.000271   -1.061094
   708 C912  c      1.072817           0.028964    0.707145    1.052315
   709 C912  c      1.077136          -0.761236   -0.000276   -1.039429
   710 C912  c      1.072783           0.028635   -0.707216    1.052440
   711 C912  c      1.101744           0.250464    1.185597    0.579835
   712 C912  c      1.048078          -1.063324   -0.445000   -0.474374
   713 C912  c      1.041339           1.055912    0.445829   -0.468588
   714 C912  c      1.098567          -0.250052   -1.186111    0.555478
   715 C912  c      1.049653          -1.062958    0.445662   -0.476836
   716 C912  c      1.040509           1.055588   -0.446113   -0.467998
   717 C912  c      1.098733          -0.251612    1.184558    0.556847
   718 C912  c      1.101613           0.249955   -1.186174    0.579554
   719 C913  c    -17.503190           4.792474   -5.265225   -0.051492
   720 C913  c    -17.497837          -4.740167    5.300915   -0.078032
   721 C913  c    -17.502534           4.794385    5.263890   -0.052195
   722 C913  c    -17.498712          -4.738958   -5.301199   -0.073788
   723 C913  c    -17.470318           0.204763    0.001264    6.953195
   724 C913  c    -17.480238          -0.116162   -0.001727   -6.990572
   725 C913  c    -17.469824           0.104792    0.001212    6.980919
   726 C913  c    -17.457661          -0.187439    0.000127   -6.930552
   727 C913  c    -17.503868          -4.784767   -5.276422    0.057141
   728 C913  c    -17.498159           4.735022    5.307246    0.090480
   729 C913  c    -17.497397           4.733415   -5.309319    0.087065
   730 C913  c    -17.504060          -4.783927    5.276695    0.060495
   731 C902  c      1.191651          -2.249357    2.740496   -0.155667
   732 C902  c      1.199568           2.261703   -2.745928   -0.109895
   733 C902  c      1.192027          -2.249878   -2.739536   -0.155471
   734 C902  c      1.199044           2.261736    2.746823   -0.111101
   735 C902  c      1.260210          -0.104405    0.000154   -3.692675
   736 C902  c      1.231212           0.106995    0.000789    3.635258
   737 C902  c      1.232131          -0.106637   -0.000603   -3.634374
   738 C902  c      1.263094           0.095973   -0.000377    3.697398
   739 C902  c      1.192203           2.247834    2.741878    0.149490
   740 C902  c      1.199412          -2.260340   -2.748744    0.103439
   741 C902  c      1.199902          -2.261045    2.747134    0.103432
   742 C902  c      1.192020           2.247087   -2.743234    0.148972
   743 C912  c      1.042864          -1.060753    0.433077    0.518841
   744 C912  c      1.081439           0.271108   -1.185593   -0.506135
   745 C912  c      1.086218          -0.271281    1.186703   -0.520491
   746 C912  c      1.045441           1.066562   -0.430341    0.521329
   747 C912  c      1.082902          -0.272002   -1.186458   -0.523197
   748 C912  c      1.084752           0.271216    1.185023   -0.504598
   749 C912  c      1.036016          -1.060309   -0.433873    0.516572
   750 C912  c      1.052703           1.066368    0.430161    0.524813
   751 C912  c      1.209143          -0.019588    0.643972   -0.962386
   752 C912  c      1.417329          -0.517314    0.017460    1.285473
   753 C912  c      1.262264          -0.016822   -0.686643   -0.924002
   754 C912  c      1.550483           0.623573    0.015853    1.375583
   755 C912  c      1.256983           0.676476   -0.005946   -0.922789
   756 C912  c      1.414079           0.020771    0.526706    1.280003
   757 C912  c      1.210293          -0.654193   -0.003405   -0.955480
   758 C912  c      1.549661           0.024328   -0.613512    1.377879
   759 C912  c      1.073599           0.273704    1.185598    0.512955
   760 C912  c      1.055071          -1.066808   -0.431109   -0.526251
   761 C912  c      1.046502           1.063040    0.433083   -0.525692
   762 C912  c      1.083545          -0.271469   -1.185602    0.503096
   763 C912  c      1.051621          -1.067307    0.431145   -0.527078
   764 C912  c      1.050027           1.063575   -0.432271   -0.523949
   765 C912  c      1.077108          -0.271957    1.186597    0.500745
   766 C912  c      1.079521           0.272517   -1.185007    0.513862
   767 C913  c    -17.505493           4.730873   -5.306308   -0.273949
   768 C913  c    -17.504645          -4.696225    5.330314   -0.274932
   769 C913  c    -17.507942           4.731664    5.305106   -0.270526
   770 C913  c    -17.501986          -4.694536   -5.332673   -0.276227
   771 C913  c    -17.428637           0.130905    0.015337    6.981570
   772 C914  c    -14.308519           0.560650   -0.050505   -4.519835
   773 C913  c    -17.441523           0.008925    0.053627    6.974172
   774 C914  c    -14.312409          -0.079079   -0.599657   -4.514877
   775 C913  c    -17.506373          -4.705059   -5.330098    0.287946
   776 C913  c    -17.500153           4.685533    5.341826    0.314792
   777 C913  c    -17.501719           4.686021   -5.339761    0.313387
   778 C913  c    -17.505150          -4.704125    5.332447    0.286583
   779 C902  c      1.189423          -2.284940    2.725100    0.020658
   780 C902  c      1.191152           2.291521   -2.727345    0.041652
   781 C902  c      1.184952          -2.285480   -2.725431    0.016820
   782 C902  c      1.195716           2.290873    2.726736    0.044719
   783 C902  c      1.374585          -0.066630   -0.024803   -3.595801
   784 C902  c      2.112778           0.115422    0.051893    4.374865
   785 C902  c      1.369017          -0.004880   -0.024435   -3.590578
   786 C902  c      2.109649           0.075668   -0.079632    4.373908
   787 C902  c      1.186390           2.281209    2.730544   -0.035320
   788 C902  c      1.196884          -2.287623   -2.729718   -0.061388
   789 C902  c      1.192768          -2.288289    2.730585   -0.061969
   790 C902  c      1.190349           2.281049   -2.729527   -0.034587
   791 H915  c     -1.583020           0.049172    0.336276    0.193585
   792 H915  c     -1.937599          -0.516128   -0.049414   -0.280860
   793 H915  c     -1.762714          -0.484744    0.052512   -0.188069
   794 H915  c     -1.849495           0.518695   -0.105545   -0.296640
   795 H915  c     -1.544542           0.544482   -0.223493   -0.000846
   796 H915  c     -1.855889          -0.083441    0.556167   -0.319097
   797 H915  c     -1.740319          -0.508474   -0.098499    0.056738
   798 H915  c     -1.900076          -0.074933   -0.372102   -0.114662
   799 H915  c     -1.844366          -0.131320   -0.475559    0.351504
   800 H915  c     -1.862819          -0.367374   -0.115857   -0.350921
   801 H915  c     -1.793354           0.388076    0.108835   -0.358245
   802 H915  c     -1.867345           0.125967    0.461159    0.362132
   803 H915  c     -1.849313           0.367406   -0.123213   -0.343533
   804 H915  c     -1.804278          -0.370844    0.103067   -0.371201
   805 H915  c     -1.871915          -0.123512    0.466803    0.369297
   806 H915  c     -1.849704           0.122353   -0.468851    0.357424
   807 H915  c     -1.885277           0.014586    0.542603    0.265283
   808 H915  c     -1.870415          -0.550707   -0.001676   -0.235691
   809 H915  c     -1.888684           0.012058   -0.545504    0.271479
   810 H915  c     -1.821017           0.520831    0.000015   -0.218626
   811 H915  c     -1.859629           0.551210    0.001664    0.227904
   812 H915  c     -1.889256          -0.012923    0.544905   -0.271039
   813 H915  c     -1.831285          -0.521365    0.000079    0.228805
   814 H915  c     -1.888524          -0.015526   -0.544795   -0.272160
   815 H915  c     -1.802299          -0.398565    0.120183    0.368712
   816 H915  c     -1.855195          -0.116517    0.437443   -0.364798
   817 H915  c     -1.924361           0.117354   -0.433326   -0.339342
   818 H915  c     -1.785244           0.400810   -0.116210    0.366106
   819 H915  c     -1.902674          -0.130736   -0.405041   -0.330498
   820 H915  c     -1.877925           0.104069    0.481017   -0.366241
   821 H915  c     -1.829279           0.417457    0.103320    0.377286
   822 H915  c     -1.753851          -0.389574   -0.140909    0.346253
   823 H915  c     -1.928634          -0.112637   -0.499013    0.400107
   824 H915  c     -1.773141          -0.378730   -0.128330   -0.353873
   825 H915  c     -1.758707           0.364432    0.137999   -0.352367
   826 H915  c     -1.911120           0.122068    0.487122    0.387519
   827 H915  c     -1.757778           0.364133   -0.138037   -0.352751
   828 H915  c     -1.774714          -0.379946    0.128756   -0.352447
   829 H915  c     -1.928150          -0.112541    0.498760    0.400033
   830 H915  c     -1.911612           0.122910   -0.487883    0.386774
   831 H915  c     -1.880026           0.009123    0.541986    0.261485
   832 H915  c     -1.883736          -0.549546   -0.000258   -0.246980
   833 H915  c     -1.880782           0.008913   -0.542095    0.262124
   834 H915  c     -1.853494           0.525715   -0.000206   -0.237539
   835 H915  c     -1.884191           0.549002   -0.000088    0.245901
   836 H915  c     -1.879849          -0.006657    0.541752   -0.260741
   837 H915  c     -1.848997          -0.524843   -0.000071    0.232151
   838 H915  c     -1.879861          -0.006910   -0.541501   -0.260519
   839 H915  c     -1.761466          -0.364341    0.136421    0.352600
   840 H915  c     -1.911593          -0.122584    0.489999   -0.385825
   841 H915  c     -1.924552           0.113652   -0.498282   -0.399857
   842 H915  c     -1.775269           0.377985   -0.128871    0.352499
   843 H915  c     -1.908896          -0.122323   -0.487731   -0.387146
   844 H915  c     -1.925987           0.113611    0.499130   -0.399436
   845 H915  c     -1.775690           0.377745    0.127636    0.353566
   846 H915  c     -1.761291          -0.364165   -0.136799    0.352472
   847 H915  c     -1.905927          -0.118849   -0.470728    0.373731
   848 H915  c     -1.809175          -0.393040   -0.120397   -0.363976
   849 H915  c     -1.796723           0.381608    0.126568   -0.363019
   850 H915  c     -1.898860           0.125718    0.462731    0.364195
   851 H915  c     -1.798924           0.381102   -0.126735   -0.364242
   852 H915  c     -1.807135          -0.393163    0.119578   -0.363444
   853 H915  c     -1.914631          -0.118937    0.468929    0.370535
   854 H915  c     -1.889422           0.125360   -0.463535    0.368240
   855 H915  c     -1.828053           0.004102    0.488923    0.289851
   856 H915  c     -1.663842          -0.248557    0.002726   -0.164372
   857 H915  c     -1.772187           0.006276   -0.502513    0.330599
   858 H915  c     -1.386822           0.269087    0.003837    0.039742
   859 H915  c     -1.783909           0.507409    0.004256    0.338531
   860 H915  c     -1.668717          -0.005570    0.246442   -0.167900
   861 H915  c     -1.825315          -0.485903    0.005998    0.291373
   862 H915  c     -1.387903          -0.001266   -0.269049    0.040717
   863 H915  c     -1.815386          -0.377291    0.124946    0.357245
   864 H915  c     -1.887050          -0.125612    0.469143   -0.367673
   865 H915  c     -1.896536           0.122046   -0.471640   -0.376589
   866 H915  c     -1.808050           0.386106   -0.120320    0.363802
   867 H915  c     -1.889600          -0.125975   -0.469049   -0.368537
   868 H915  c     -1.893592           0.122483    0.471813   -0.374986
   869 H915  c     -1.814950           0.385089    0.122601    0.360567
   870 H915  c     -1.809402          -0.379469   -0.122701    0.359690
   871 Zn172 c    -20.858529          -0.033159   -0.357420    0.017378
   872 Zn172 c    -20.722262          -0.542111    0.000652    0.234588
   873 Zn172 c    -20.674029           0.505435    0.035494    0.185244
   874 Zn172 c    -20.846909          -0.040736    0.377291    0.019739
   875 Zn172 c    -20.659922           0.423098    0.014895   -0.000040
   876 Zn172 c    -20.831551           0.119237    0.347870   -0.215076
   877 Zn172 c    -20.555293          -0.396146    0.013140    0.032857
   878 Zn172 c    -20.693460           0.098931   -0.116570   -0.299691
   879 Zn172 c    -20.938519          -0.028584   -0.212579    0.109016
   880 Zn172 c    -20.568765          -0.516650    0.004590    0.061646
   881 Zn172 c    -20.472176           0.504192    0.003067   -0.019932
   882 Zn172 c    -20.937491          -0.029053    0.214580    0.110587
   883 Zn172 c    -20.588411           0.534279    0.000480   -0.125231
   884 Zn172 c    -20.959508           0.036629    0.253588   -0.066009
   885 Zn172 c    -20.506382          -0.539517    0.000289   -0.068530
   886 Zn172 c    -20.956091           0.039199   -0.257563   -0.068030
   887 Zn172 c    -20.865461          -0.019200   -0.260388    0.124770
   888 Zn172 c    -20.658790          -0.483376    0.000946    0.094928
   889 Zn172 c    -20.592664           0.464505    0.001329    0.036489
   890 Zn172 c    -20.872846          -0.018143    0.270085    0.113696
   891 Zn172 c    -20.663872           0.484694   -0.002602   -0.142540
   892 Zn172 c    -20.879318           0.019958    0.305871   -0.087793
   893 Zn172 c    -20.638340          -0.506704   -0.005088   -0.141701
   894 Zn172 c    -20.879813           0.020132   -0.305532   -0.089422
-------------------------------------------------------------------------------

  Total time to end of lattice properties =    3117.6389 s


  Peak dynamic memory used =     148.21 MB 


  Timing analysis for GULP :

--------------------------------------------------------------------------------
  Task / Subroutine                                          Time (Seconds)
--------------------------------------------------------------------------------
  Calculation of reciprocal space energy and derivatives        770.9325
  Calculation of real space energy and derivatives             1948.9115
  Calculation of three-body energy and derivatives                6.0500
  Calculation of four-body energy and derivatives                 6.5486
  Calculation of molecules and connectivity                       0.4773
  Calculation of phonons                                         53.3255
  Calculation of scattering                                       0.0000
  Calculation of matrix inversion                               327.5152
  Symmetry generation of equivalent positions                     0.0126
  Global summation overhead                                       0.0057
--------------------------------------------------------------------------------
  Total CPU time                                               3117.6390
--------------------------------------------------------------------------------


  Dump file written as fit1.res                                                


  Job Finished at 23:25.37 17th May        2016                               

