********************************************************************************
*                       GENERAL UTILITY LATTICE PROGRAM                        *
*                                 Julian Gale                                  *
*                      Nanochemistry Research Institute                        *
*                           Department of Chemistry                            *
*                    Curtin University, Western Australia                      *
********************************************************************************
* Version = 4.4.0 * Last modified = 31st March 2015                            *
********************************************************************************
*  optimise     - perform optimisation run                                     *
*  conv         - constant volume calculation                                  *
*  property     - calculate properties for final geometry                      *
*  phonon       - calculate phonons for final geometry                         *
*  potential    - calculate electrostatic site potentials                      *
*  molmec       - molecule option activated, Coulomb subtract 1-2/1-3 terms    *
*  fix_molecule - fix atoms of molecule as at the start of the run             *
*  compare      - compare initial and final structures                         *
********************************************************************************

  Job Started  at 17:08.40 16th May        2016                               

  Number of CPUs =     1


  Total number of configurations input =   1

********************************************************************************
*  Input for Configuration =   1                                               *
********************************************************************************

  Formula = Ti180O446H84C160Zn24                                        

  Number of irreducible atoms/shells =     894


  Total number atoms/shells =     894

  Dimensionality = 3               :  Bulk   



  Cartesian lattice vectors (Angstroms) :

       17.724000    0.000000    0.000000
        0.000000   19.461000    0.000000
        0.000000    0.000000  114.868482

  Cell parameters (Angstroms/Degrees):

  a =      17.7240    alpha =  90.0000
  b =      19.4610    beta  =  90.0000
  c =     114.8685    gamma =  90.0000

  Initial cell volume =       39621.213782 Angs**3

  Temperature of configuration =  0.000     K 

  Pressure of configuration =         0.000 GPa 

  Fractional coordinates of asymmetric unit :

--------------------------------------------------------------------------------
   No.  Atomic       x           y          z         Charge      Occupancy
        Label      (Frac)      (Frac)     (Frac)        (e)         (Frac)  
--------------------------------------------------------------------------------
      1 Ti    c    0.320000    0.733333    0.339268     2.43600    1.000000    
      2 Ti    c    0.148216 *  0.399261 *  0.341348 *   2.43600    1.000000    
      3 Ti    c    0.981598 *  0.399981 *  0.341416 *   2.43600    1.000000    
      4 Ti    c    0.816542 *  0.399847 *  0.340016 *   2.43600    1.000000    
      5 Ti    c    0.647408 *  0.399572 *  0.339875 *   2.43600    1.000000    
      6 Ti    c    0.482520 *  0.399963 *  0.341403 *   2.43600    1.000000    
      7 Ti    c    0.315711 *  0.399292 *  0.341322 *   2.43600    1.000000    
      8 Ti    c    0.148521 *  0.065873 *  0.340842 *   2.43600    1.000000    
      9 Ti    c    0.982070 *  0.065850 *  0.341312 *   2.43600    1.000000    
     10 Ti    c    0.815696 *  0.065970 *  0.341283 *   2.43600    1.000000    
     11 Ti    c    0.648632 *  0.065792 *  0.341245 *   2.43600    1.000000    
     12 Ti    c    0.481997 *  0.066235 *  0.341306 *   2.43600    1.000000    
     13 Ti    c    0.315304 *  0.065902 *  0.341273 *   2.43600    1.000000    
     14 Ti    c    0.143861 *  0.733410 *  0.338679 *   2.43600    1.000000    
     15 Ti    c    0.981339 *  0.733280 *  0.341488 *   2.43600    1.000000    
     16 Ti    c    0.815485 *  0.731909 *  0.341460 *   2.43600    1.000000    
     17 Ti    c    0.649014 *  0.732040 *  0.341422 *   2.43600    1.000000    
     18 Ti    c    0.483029 *  0.732710 *  0.341451 *   2.43600    1.000000    
     19 Ti    c    0.065089 *  0.232222 *  0.339164 *   2.43600    1.000000    
     20 Ti    c    0.898238 *  0.233457 *  0.339145 *   2.43600    1.000000    
     21 Ti    c    0.731912 *  0.230724 *  0.339402 *   2.43600    1.000000    
     22 Ti    c    0.899650 *  0.899221 *  0.339230 *   2.43600    1.000000    
     23 Ti    c    0.565105 *  0.899218 *  0.339196 *   2.43600    1.000000    
     24 Ti    c    0.397854 *  0.899520 *  0.339139 *   2.43600    1.000000    
     25 Ti    c    0.898536 *  0.566830 *  0.338912 *   2.43600    1.000000    
     26 Ti    c    0.565564 *  0.566484 *  0.338867 *   2.43600    1.000000    
     27 Ti    c    0.398948 *  0.566784 *  0.339045 *   2.43600    1.000000    
     28 Ti    c    0.232149 *  0.232018 *  0.339107 *   2.43600    1.000000    
     29 Ti    c    0.565738 *  0.233482 *  0.339108 *   2.43600    1.000000    
     30 Ti    c    0.399002 *  0.232905 *  0.339175 *   2.43600    1.000000    
     31 Ti    c    0.231208 *  0.900968 *  0.340522 *   2.43600    1.000000    
     32 Ti    c    0.066308 *  0.899777 *  0.340840 *   2.43600    1.000000    
     33 Ti    c    0.732409 *  0.898402 *  0.339202 *   2.43600    1.000000    
     34 Ti    c    0.232131 *  0.563794 *  0.338735 *   2.43600    1.000000    
     35 Ti    c    0.065189 *  0.567406 *  0.339032 *   2.43600    1.000000    
     36 Ti    c    0.732015 *  0.564989 *  0.340506 *   2.43600    1.000000    
     37 Ti    c    0.315516 *  0.566004 *  0.311737 *   2.43600    1.000000    
     38 Ti    c    0.148702 *  0.232803 *  0.312000 *   2.43600    1.000000    
     39 Ti    c    0.982039 *  0.232730 *  0.311949 *   2.43600    1.000000    
     40 Ti    c    0.815305 *  0.232522 *  0.312064 *   2.43600    1.000000    
     41 Ti    c    0.648761 *  0.232521 *  0.312050 *   2.43600    1.000000    
     42 Ti    c    0.482009 *  0.232733 *  0.311923 *   2.43600    1.000000    
     43 Ti    c    0.315441 *  0.232882 *  0.311962 *   2.43600    1.000000    
     44 Ti    c    0.148606 *  0.899681 *  0.313434 *   2.43600    1.000000    
     45 Ti    c    0.982260 *  0.899422 *  0.312543 *   2.43600    1.000000    
     46 Ti    c    0.815378 *  0.899159 *  0.312038 *   2.43600    1.000000    
     47 Ti    c    0.648785 *  0.899152 *  0.312048 *   2.43600    1.000000    
     48 Ti    c    0.482265 *  0.899436 *  0.311944 *   2.43600    1.000000    
     49 Ti    c    0.315218 *  0.899672 *  0.312438 *   2.43600    1.000000    
     50 Ti    c    0.148639 *  0.566087 *  0.311773 *   2.43600    1.000000    
     51 Ti    c    0.982078 *  0.566198 *  0.311735 *   2.43600    1.000000    
     52 Ti    c    0.815018 *  0.565785 *  0.312481 *   2.43600    1.000000    
     53 Ti    c    0.649087 *  0.565754 *  0.312464 *   2.43600    1.000000    
     54 Ti    c    0.481993 *  0.566192 *  0.311718 *   2.43600    1.000000    
     55 Ti    c    0.400349 *  0.732823 *  0.312178 *   2.43600    1.000000    
     56 Ti    c    0.232046 *  0.399391 *  0.312734 *   2.43600    1.000000    
     57 Ti    c    0.065579 *  0.399266 *  0.312764 *   2.43600    1.000000    
     58 Ti    c    0.899513 *  0.399084 *  0.312464 *   2.43600    1.000000    
     59 Ti    c    0.732089 *  0.399035 *  0.312437 *   2.43600    1.000000    
     60 Ti    c    0.564518 *  0.399069 *  0.312419 *   2.43600    1.000000    
     61 Ti    c    0.398534 *  0.399268 *  0.312742 *   2.43600    1.000000    
     62 Ti    c    0.232199 *  0.066285 *  0.312750 *   2.43600    1.000000    
     63 Ti    c    0.065246 *  0.066190 *  0.312764 *   2.43600    1.000000    
     64 Ti    c    0.898711 *  0.065834 *  0.312799 *   2.43600    1.000000    
     65 Ti    c    0.732051 *  0.065842 *  0.312779 *   2.43600    1.000000    
     66 Ti    c    0.565369 *  0.065860 *  0.312766 *   2.43600    1.000000    
     67 Ti    c    0.398781 *  0.066302 *  0.312778 *   2.43600    1.000000    
     68 Ti    c    0.232262 *  0.732885 *  0.312273 *   2.43600    1.000000    
     69 Ti    c    0.063548 *  0.732983 *  0.312110 *   2.43600    1.000000    
     70 Ti    c    0.898190 *  0.732446 *  0.312828 *   2.43600    1.000000    
     71 Ti    c    0.732063 *  0.732401 *  0.312885 *   2.43600    1.000000    
     72 Ti    c    0.565910 *  0.732439 *  0.312787 *   2.43600    1.000000    
     73 Ti    c    0.315381 *  0.732771 *  0.284577 *   2.43600    1.000000    
     74 Ti    c    0.148753 *  0.399382 *  0.284884 *   2.43600    1.000000    
     75 Ti    c    0.982199 *  0.399332 *  0.284851 *   2.43600    1.000000    
     76 Ti    c    0.815394 *  0.399294 *  0.284720 *   2.43600    1.000000    
     77 Ti    c    0.648723 *  0.399297 *  0.284703 *   2.43600    1.000000    
     78 Ti    c    0.481899 *  0.399331 *  0.284819 *   2.43600    1.000000    
     79 Ti    c    0.315339 *  0.399383 *  0.284876 *   2.43600    1.000000    
     80 Ti    c    0.148716 *  0.065996 *  0.285007 *   2.43600    1.000000    
     81 Ti    c    0.982059 *  0.065947 *  0.285037 *   2.43600    1.000000    
     82 Ti    c    0.815377 *  0.065942 *  0.284997 *   2.43600    1.000000    
     83 Ti    c    0.648734 *  0.065975 *  0.284957 *   2.43600    1.000000    
     84 Ti    c    0.482074 *  0.065964 *  0.284979 *   2.43600    1.000000    
     85 Ti    c    0.315387 *  0.065996 *  0.285013 *   2.43600    1.000000    
     86 Ti    c    0.148725 *  0.732773 *  0.284551 *   2.43600    1.000000    
     87 Ti    c    0.981690 *  0.732658 *  0.284837 *   2.43600    1.000000    
     88 Ti    c    0.815235 *  0.732640 *  0.285008 *   2.43600    1.000000    
     89 Ti    c    0.648859 *  0.732603 *  0.284969 *   2.43600    1.000000    
     90 Ti    c    0.482400 *  0.732645 *  0.284795 *   2.43600    1.000000    
     91 Ti    c    0.398840 *  0.566028 *  0.284756 *   2.43600    1.000000    
     92 Ti    c    0.232036 *  0.232676 *  0.284930 *   2.43600    1.000000    
     93 Ti    c    0.065411 *  0.232626 *  0.284935 *   2.43600    1.000000    
     94 Ti    c    0.898682 *  0.232655 *  0.284944 *   2.43600    1.000000    
     95 Ti    c    0.732061 *  0.232647 *  0.284953 *   2.43600    1.000000    
     96 Ti    c    0.565429 *  0.232668 *  0.284922 *   2.43600    1.000000    
     97 Ti    c    0.398691 *  0.232657 *  0.284914 *   2.43600    1.000000    
     98 Ti    c    0.231587 *  0.899381 *  0.285445 *   2.43600    1.000000    
     99 Ti    c    0.065769 *  0.899290 *  0.285491 *   2.43600    1.000000    
    100 Ti    c    0.899082 *  0.899316 *  0.285163 *   2.43600    1.000000    
    101 Ti    c    0.732153 *  0.899297 *  0.285001 *   2.43600    1.000000    
    102 Ti    c    0.565426 *  0.899311 *  0.284970 *   2.43600    1.000000    
    103 Ti    c    0.398380 *  0.899293 *  0.285079 *   2.43600    1.000000    
    104 Ti    c    0.232037 *  0.566081 *  0.284741 *   2.43600    1.000000    
    105 Ti    c    0.065266 *  0.566056 *  0.284773 *   2.43600    1.000000    
    106 Ti    c    0.898268 *  0.565889 *  0.284977 *   2.43600    1.000000    
    107 Ti    c    0.732063 *  0.565876 *  0.285154 *   2.43600    1.000000    
    108 Ti    c    0.565838 *  0.565881 *  0.284957 *   2.43600    1.000000    
    109 Ti    c    0.315427 *  0.566009 *  0.257711 *   2.43600    1.000000    
    110 Ti    c    0.148722 *  0.232667 *  0.257889 *   2.43600    1.000000    
    111 Ti    c    0.982051 *  0.232655 *  0.257890 *   2.43600    1.000000    
    112 Ti    c    0.815385 *  0.232636 *  0.257890 *   2.43600    1.000000    
    113 Ti    c    0.648726 *  0.232631 *  0.257877 *   2.43600    1.000000    
    114 Ti    c    0.482054 *  0.232647 *  0.257867 *   2.43600    1.000000    
    115 Ti    c    0.315385 *  0.232659 *  0.257876 *   2.43600    1.000000    
    116 Ti    c    0.148701 *  0.899319 *  0.258271 *   2.43600    1.000000    
    117 Ti    c    0.982239 *  0.899318 *  0.258178 *   2.43600    1.000000    
    118 Ti    c    0.815521 *  0.899334 *  0.258016 *   2.43600    1.000000    
    119 Ti    c    0.648745 *  0.899334 *  0.257939 *   2.43600    1.000000    
    120 Ti    c    0.481957 *  0.899320 *  0.257958 *   2.43600    1.000000    
    121 Ti    c    0.315190 *  0.899321 *  0.258112 *   2.43600    1.000000    
    122 Ti    c    0.148683 *  0.566001 *  0.257723 *   2.43600    1.000000    
    123 Ti    c    0.981913 *  0.565990 *  0.257817 *   2.43600    1.000000    
    124 Ti    c    0.815285 *  0.565972 *  0.257961 *   2.43600    1.000000    
    125 Ti    c    0.648821 *  0.565977 *  0.257949 *   2.43600    1.000000    
    126 Ti    c    0.482188 *  0.565997 *  0.257797 *   2.43600    1.000000    
    127 Ti    c    0.398878 *  0.732685 *  0.256962 *   2.43600    1.000000    
    128 Ti    c    0.232049 *  0.399320 *  0.257052 *   2.43600    1.000000    
    129 Ti    c    0.065417 *  0.399328 *  0.257047 *   2.43600    1.000000    
    130 Ti    c    0.898785 *  0.399317 *  0.257016 *   2.43600    1.000000    
    131 Ti    c    0.732061 *  0.399290 *  0.256985 *   2.43600    1.000000    
    132 Ti    c    0.565328 *  0.399317 *  0.256999 *   2.43600    1.000000    
    133 Ti    c    0.398679 *  0.399328 *  0.257031 *   2.43600    1.000000    
    134 Ti    c    0.232036 *  0.065979 *  0.257211 *   2.43600    1.000000    
    135 Ti    c    0.065395 *  0.065983 *  0.257222 *   2.43600    1.000000    
    136 Ti    c    0.898771 *  0.065951 *  0.257199 *   2.43600    1.000000    
    137 Ti    c    0.732089 *  0.065958 *  0.257165 *   2.43600    1.000000    
    138 Ti    c    0.565370 *  0.065958 *  0.257154 *   2.43600    1.000000    
    139 Ti    c    0.398678 *  0.065960 *  0.257178 *   2.43600    1.000000    
    140 Ti    c    0.232041 *  0.732679 *  0.256912 *   2.43600    1.000000    
    141 Ti    c    0.065187 *  0.732663 *  0.256996 *   2.43600    1.000000    
    142 Ti    c    0.898579 *  0.732680 *  0.257115 *   2.43600    1.000000    
    143 Ti    c    0.732083 *  0.732687 *  0.257156 *   2.43600    1.000000    
    144 Ti    c    0.565548 *  0.732671 *  0.257076 *   2.43600    1.000000    
    145 Ti    c    0.398821 *  0.566027 *  0.230591 *   2.43600    1.000000    
    146 Ti    c    0.315389 *  0.732784 *  0.228424 *   2.43600    1.000000    
    147 Ti    c    0.232041 *  0.232597 *  0.230715 *   2.43600    1.000000    
    148 Ti    c    0.148704 *  0.399298 *  0.228508 *   2.43600    1.000000    
    149 Ti    c    0.065387 *  0.232591 *  0.230722 *   2.43600    1.000000    
    150 Ti    c    0.982043 *  0.399302 *  0.228498 *   2.43600    1.000000    
    151 Ti    c    0.898731 *  0.232608 *  0.230720 *   2.43600    1.000000    
    152 Ti    c    0.815391 *  0.399301 *  0.228472 *   2.43600    1.000000    
    153 Ti    c    0.732070 *  0.232609 *  0.230709 *   2.43600    1.000000    
    154 Ti    c    0.648736 *  0.399300 *  0.228466 *   2.43600    1.000000    
    155 Ti    c    0.565391 *  0.232602 *  0.230699 *   2.43600    1.000000    
    156 Ti    c    0.482066 *  0.399302 *  0.228484 *   2.43600    1.000000    
    157 Ti    c    0.398709 *  0.232605 *  0.230703 *   2.43600    1.000000    
    158 Ti    c    0.315382 *  0.399298 *  0.228502 *   2.43600    1.000000    
    159 Ti    c    0.231925 *  0.899332 *  0.230965 *   2.43600    1.000000    
    160 Ti    c    0.148706 *  0.065893 *  0.228686 *   2.43600    1.000000    
    161 Ti    c    0.065450 *  0.899337 *  0.231001 *   2.43600    1.000000    
    162 Ti    c    0.982093 *  0.065897 *  0.228679 *   2.43600    1.000000    
    163 Ti    c    0.898877 *  0.899342 *  0.230903 *   2.43600    1.000000    
    164 Ti    c    0.815442 *  0.065907 *  0.228645 *   2.43600    1.000000    
    165 Ti    c    0.732151 *  0.899335 *  0.230802 *   2.43600    1.000000    
    166 Ti    c    0.648741 *  0.065916 *  0.228619 *   2.43600    1.000000    
    167 Ti    c    0.565364 *  0.899342 *  0.230773 *   2.43600    1.000000    
    168 Ti    c    0.482020 *  0.065907 *  0.228630 *   2.43600    1.000000    
    169 Ti    c    0.398575 *  0.899341 *  0.230838 *   2.43600    1.000000    
    170 Ti    c    0.315334 *  0.065895 *  0.228665 *   2.43600    1.000000    
    171 Ti    c    0.232041 *  0.566038 *  0.230559 *   2.43600    1.000000    
    172 Ti    c    0.148652 *  0.732787 *  0.228441 *   2.43600    1.000000    
    173 Ti    c    0.065274 *  0.566040 *  0.230609 *   2.43600    1.000000    
    174 Ti    c    0.981984 *  0.732774 *  0.228540 *   2.43600    1.000000    
    175 Ti    c    0.898592 *  0.566021 *  0.230713 *   2.43600    1.000000    
    176 Ti    c    0.815386 *  0.732760 *  0.228608 *   2.43600    1.000000    
    177 Ti    c    0.732067 *  0.566018 *  0.230766 *   2.43600    1.000000    
    178 Ti    c    0.648790 *  0.732750 *  0.228585 *   2.43600    1.000000    
    179 Ti    c    0.565526 *  0.566026 *  0.230694 *   2.43600    1.000000    
    180 Ti    c    0.482125 *  0.732764 *  0.228498 *   2.43600    1.000000    
    181 O2    c    0.394651 *  0.729755 *  0.349523 *  -1.21800    1.000000    
    182 O2    c    0.232066 *  0.403144 *  0.349999 *  -1.21800    1.000000    
    183 O2    c    0.064872 *  0.400476 *  0.350166 *  -1.21800    1.000000    
    184 O2    c    0.894968 *  0.400555 *  0.349839 *  -1.21800    1.000000    
    185 O3    c    0.729447 *  0.230583 *  0.356066 *  -0.33800    1.000000    
    186 H22   c    0.729949 *  0.198584 *  0.362492 *   0.12000    1.000000    
    187 O2    c    0.569303 *  0.400761 *  0.349799 *  -1.21800    1.000000    
    188 O2    c    0.399219 *  0.400428 *  0.350136 *  -1.21800    1.000000    
    189 O2    c    0.231347 *  0.067559 *  0.349824 *  -1.21800    1.000000    
    190 O2    c    0.066093 *  0.069611 *  0.349848 *  -1.21800    1.000000    
    191 O2    c    0.898582 *  0.067784 *  0.350094 *  -1.21800    1.000000    
    192 O2    c    0.731970 *  0.068282 *  0.349980 *  -1.21800    1.000000    
    193 O2    c    0.565420 *  0.065627 *  0.350040 *  -1.21800    1.000000    
    194 O2    c    0.398787 *  0.067834 *  0.350052 *  -1.21800    1.000000    
    195 O3    c    0.231240 *  0.733133 *  0.349841 *  -0.33800    1.000000    
    196 H22   c    0.226901 *  0.745635 *  0.357970 *   0.12000    1.000000    
    197 O2    c    0.070995 *  0.728337 *  0.349217 *  -1.21800    1.000000    
    198 O2    c    0.898945 *  0.731021 *  0.350307 *  -1.21800    1.000000    
    199 O2    c    0.732047 *  0.733380 *  0.350172 *  -1.21800    1.000000    
    200 O2    c    0.565264 *  0.733153 *  0.350254 *  -1.21800    1.000000    
    201 O2    c    0.148851 *  0.172967 *  0.340321 *  -1.21800    1.000000    
    202 O2    c    0.981129 *  0.173288 *  0.340532 *  -1.21800    1.000000    
    203 O2    c    0.816344 *  0.172444 *  0.340274 *  -1.21800    1.000000    
    204 O2    c    0.647033 *  0.172113 *  0.340269 *  -1.21800    1.000000    
    205 O2    c    0.482628 *  0.172905 *  0.340563 *  -1.21800    1.000000    
    206 O2    c    0.316138 *  0.172960 *  0.340587 *  -1.21800    1.000000    
    207 O2    c    0.151165 *  0.831093 *  0.338723 *  -1.21800    1.000000    
    208 O2    c    0.980355 *  0.836125 *  0.340583 *  -1.21800    1.000000    
    209 O2    c    0.815802 *  0.838182 *  0.340736 *  -1.21800    1.000000    
    210 O2    c    0.648072 *  0.838369 *  0.340657 *  -1.21800    1.000000    
    211 O2    c    0.480966 *  0.837758 *  0.340821 *  -1.21800    1.000000    
    212 O2    c    0.317085 *  0.833693 *  0.340153 *  -1.21800    1.000000    
    213 O2    c    0.982349 *  0.505667 *  0.340597 *  -1.21800    1.000000    
    214 O2    c    0.481825 *  0.505663 *  0.340614 *  -1.21800    1.000000    
    215 O2    c    0.316330 *  0.506641 *  0.340508 *  -1.21800    1.000000    
    216 O2    c    0.147850 *  0.506843 *  0.340544 *  -1.21800    1.000000    
    217 O2    c    0.820053 *  0.501578 *  0.338951 *  -1.21800    1.000000    
    218 O2    c    0.643823 *  0.501436 *  0.338876 *  -1.21800    1.000000    
    219 O2    c    0.312829 *  0.629028 *  0.340505 *  -1.21800    1.000000    
    220 O2    c    0.148986 *  0.294015 *  0.340743 *  -1.21800    1.000000    
    221 O2    c    0.981747 *  0.294332 *  0.340844 *  -1.21800    1.000000    
    222 O2    c    0.813855 *  0.295940 *  0.340545 *  -1.21800    1.000000    
    223 O2    c    0.649771 *  0.295849 *  0.340472 *  -1.21800    1.000000    
    224 O2    c    0.482463 *  0.294262 *  0.340867 *  -1.21800    1.000000    
    225 O2    c    0.315222 *  0.294176 *  0.340708 *  -1.21800    1.000000    
    226 O2    c    0.979563 *  0.961581 *  0.340477 *  -1.21800    1.000000    
    227 O2    c    0.482020 *  0.959577 *  0.340682 *  -1.21800    1.000000    
    228 O2    c    0.318266 *  0.960977 *  0.340365 *  -1.21800    1.000000    
    229 O2    c    0.152275 *  0.629048 *  0.340202 *  -1.21800    1.000000    
    230 O2    c    0.982591 *  0.626953 *  0.340686 *  -1.21800    1.000000    
    231 O2    c    0.816623 *  0.626736 *  0.340593 *  -1.21800    1.000000    
    232 O2    c    0.646724 *  0.626918 *  0.340614 *  -1.21800    1.000000    
    233 O2    c    0.481346 *  0.627213 *  0.340681 *  -1.21800    1.000000    
    234 O2    c    0.148971 *  0.964227 *  0.338892 *  -1.21800    1.000000    
    235 O2    c    0.814920 *  0.959860 *  0.340739 *  -1.21800    1.000000    
    236 O2    c    0.648937 *  0.959644 *  0.340659 *  -1.21800    1.000000    
    237 O2    c    0.402162 *  0.731387 *  0.328827 *  -1.21800    1.000000    
    238 O2    c    0.232127 *  0.400595 *  0.329405 *  -1.21800    1.000000    
    239 O2    c    0.065659 *  0.399596 *  0.329438 *  -1.21800    1.000000    
    240 O2    c    0.900887 *  0.396944 *  0.329085 *  -1.21800    1.000000    
    241 O2    c    0.732073 *  0.396492 *  0.329506 *  -1.21800    1.000000    
    242 O2    c    0.562868 *  0.396844 *  0.329049 *  -1.21800    1.000000    
    243 O2    c    0.398620 *  0.399571 *  0.329431 *  -1.21800    1.000000    
    244 O2    c    0.233904 *  0.069337 *  0.329191 *  -1.21800    1.000000    
    245 O2    c    0.063895 *  0.069367 *  0.329193 *  -1.21800    1.000000    
    246 O2    c    0.897883 *  0.066140 *  0.329343 *  -1.21800    1.000000    
    247 O2    c    0.731727 *  0.065786 *  0.329358 *  -1.21800    1.000000    
    248 O2    c    0.565138 *  0.065408 *  0.329359 *  -1.21800    1.000000    
    249 O2    c    0.399723 *  0.066703 *  0.329350 *  -1.21800    1.000000    
    250 O2    c    0.233622 *  0.729313 *  0.329929 *  -1.21800    1.000000    
    251 O2    c    0.060822 *  0.729048 *  0.328596 *  -1.21800    1.000000    
    252 O2    c    0.898081 *  0.731687 *  0.329469 *  -1.21800    1.000000    
    253 O2    c    0.731735 *  0.733278 *  0.329490 *  -1.21800    1.000000    
    254 O2    c    0.564994 *  0.732423 *  0.329479 *  -1.21800    1.000000    
    255 O2    c    0.398100 *  0.567113 *  0.322788 *  -1.21800    1.000000    
    256 O2    c    0.232385 *  0.233601 *  0.322842 *  -1.21800    1.000000    
    257 O2    c    0.065187 *  0.233820 *  0.322866 *  -1.21800    1.000000    
    258 O2    c    0.898774 *  0.234139 *  0.322865 *  -1.21800    1.000000    
    259 O2    c    0.731851 *  0.232956 *  0.322971 *  -1.21800    1.000000    
    260 O2    c    0.565038 *  0.233980 *  0.322853 *  -1.21800    1.000000    
    261 O2    c    0.399000 *  0.233643 *  0.322888 *  -1.21800    1.000000    
    262 O2    c    0.235405 *  0.898896 *  0.323465 *  -1.21800    1.000000    
    263 O2    c    0.062751 *  0.898243 *  0.323595 *  -1.21800    1.000000    
    264 O2    c    0.897038 *  0.899018 *  0.322965 *  -1.21800    1.000000    
    265 O2    c    0.731745 *  0.898984 *  0.322921 *  -1.21800    1.000000    
    266 O2    c    0.565170 *  0.898960 *  0.322918 *  -1.21800    1.000000    
    267 O2    c    0.400433 *  0.898376 *  0.322906 *  -1.21800    1.000000    
    268 O2    c    0.232388 *  0.565792 *  0.322626 *  -1.21800    1.000000    
    269 O2    c    0.066075 *  0.566960 *  0.322764 *  -1.21800    1.000000    
    270 O2    c    0.901169 *  0.567276 *  0.322709 *  -1.21800    1.000000    
    271 O2    c    0.731871 *  0.566453 *  0.323374 *  -1.21800    1.000000    
    272 O2    c    0.562748 *  0.567311 *  0.322696 *  -1.21800    1.000000    
    273 O2    c    0.315335 *  0.667755 *  0.312484 *  -1.21800    1.000000    
    274 O2    c    0.315441 *  0.465202 *  0.312397 *  -1.21800    1.000000    
    275 O2    c    0.148968 *  0.334257 *  0.312459 *  -1.21800    1.000000    
    276 O2    c    0.148800 *  0.132116 *  0.312334 *  -1.21800    1.000000    
    277 O2    c    0.982624 *  0.333972 *  0.312192 *  -1.21800    1.000000    
    278 O2    c    0.981471 *  0.132092 *  0.312292 *  -1.21800    1.000000    
    279 O2    c    0.815195 *  0.334134 *  0.312409 *  -1.21800    1.000000    
    280 O2    c    0.815141 *  0.131736 *  0.312434 *  -1.21800    1.000000    
    281 O2    c    0.648710 *  0.334146 *  0.312426 *  -1.21800    1.000000    
    282 O2    c    0.648574 *  0.131632 *  0.312466 *  -1.21800    1.000000    
    283 O2    c    0.481430 *  0.333900 *  0.312181 *  -1.21800    1.000000    
    284 O2    c    0.482366 *  0.131874 *  0.312418 *  -1.21800    1.000000    
    285 O2    c    0.315339 *  0.334266 *  0.312451 *  -1.21800    1.000000    
    286 O2    c    0.315970 *  0.132178 *  0.312305 *  -1.21800    1.000000    
    287 O2    c    0.148916 *  0.001037 *  0.312674 *  -1.21800    1.000000    
    288 O2    c    0.149117 *  0.796249 *  0.312988 *  -1.21800    1.000000    
    289 O2    c    0.982000 *  0.000744 *  0.312453 *  -1.21800    1.000000    
    290 O2    c    0.981089 *  0.797868 *  0.312214 *  -1.21800    1.000000    
    291 O2    c    0.815037 *  0.000511 *  0.312407 *  -1.21800    1.000000    
    292 O2    c    0.815012 *  0.797852 *  0.312433 *  -1.21800    1.000000    
    293 O2    c    0.648557 *  0.000379 *  0.312446 *  -1.21800    1.000000    
    294 O2    c    0.648603 *  0.797971 *  0.312468 *  -1.21800    1.000000    
    295 O2    c    0.482009 *  0.000487 *  0.312375 *  -1.21800    1.000000    
    296 O2    c    0.482796 *  0.798061 *  0.312176 *  -1.21800    1.000000    
    297 O2    c    0.315880 *  0.000808 *  0.312441 *  -1.21800    1.000000    
    298 O2    c    0.315602 *  0.796615 *  0.312726 *  -1.21800    1.000000    
    299 O2    c    0.149374 *  0.667830 *  0.312533 *  -1.21800    1.000000    
    300 O2    c    0.148879 *  0.465220 *  0.312404 *  -1.21800    1.000000    
    301 O2    c    0.981560 *  0.666840 *  0.311850 *  -1.21800    1.000000    
    302 O2    c    0.982606 *  0.464975 *  0.312294 *  -1.21800    1.000000    
    303 O2    c    0.815080 *  0.666932 *  0.312512 *  -1.21800    1.000000    
    304 O2    c    0.815284 *  0.463880 *  0.312629 *  -1.21800    1.000000    
    305 O2    c    0.648665 *  0.667025 *  0.312545 *  -1.21800    1.000000    
    306 O2    c    0.648618 *  0.463835 *  0.312635 *  -1.21800    1.000000    
    307 O2    c    0.482261 *  0.667083 *  0.312020 *  -1.21800    1.000000    
    308 O2    c    0.481473 *  0.465032 *  0.312291 *  -1.21800    1.000000    
    309 O2    c    0.398470 *  0.566455 *  0.301339 *  -1.21800    1.000000    
    310 O2    c    0.232080 *  0.233253 *  0.301477 *  -1.21800    1.000000    
    311 O2    c    0.065557 *  0.232951 *  0.301474 *  -1.21800    1.000000    
    312 O2    c    0.898342 *  0.233169 *  0.301493 *  -1.21800    1.000000    
    313 O2    c    0.731959 *  0.233110 *  0.301541 *  -1.21800    1.000000    
    314 O2    c    0.565645 *  0.232970 *  0.301487 *  -1.21800    1.000000    
    315 O2    c    0.398689 *  0.232925 *  0.301464 *  -1.21800    1.000000    
    316 O2    c    0.230976 *  0.898018 *  0.302088 *  -1.21800    1.000000    
    317 O2    c    0.066835 *  0.898436 *  0.302127 *  -1.21800    1.000000    
    318 O2    c    0.899299 *  0.899548 *  0.301670 *  -1.21800    1.000000    
    319 O2    c    0.731971 *  0.899268 *  0.301538 *  -1.21800    1.000000    
    320 O2    c    0.565593 *  0.899483 *  0.301510 *  -1.21800    1.000000    
    321 O2    c    0.397855 *  0.898476 *  0.301633 *  -1.21800    1.000000    
    322 O2    c    0.232075 *  0.566882 *  0.301331 *  -1.21800    1.000000    
    323 O2    c    0.065817 *  0.566430 *  0.301343 *  -1.21800    1.000000    
    324 O2    c    0.897443 *  0.564833 *  0.301503 *  -1.21800    1.000000    
    325 O2    c    0.731972 *  0.564893 *  0.301800 *  -1.21800    1.000000    
    326 O2    c    0.566531 *  0.565075 *  0.301499 *  -1.21800    1.000000    
    327 O2    c    0.398129 *  0.732552 *  0.295481 *  -1.21800    1.000000    
    328 O2    c    0.232116 *  0.399708 *  0.295722 *  -1.21800    1.000000    
    329 O2    c    0.065593 *  0.399635 *  0.295699 *  -1.21800    1.000000    
    330 O2    c    0.898455 *  0.399422 *  0.295603 *  -1.21800    1.000000    
    331 O2    c    0.731963 *  0.399381 *  0.295590 *  -1.21800    1.000000    
    332 O2    c    0.565563 *  0.399414 *  0.295585 *  -1.21800    1.000000    
    333 O2    c    0.398613 *  0.399640 *  0.295686 *  -1.21800    1.000000    
    334 O2    c    0.232140 *  0.066209 *  0.295780 *  -1.21800    1.000000    
    335 O2    c    0.065477 *  0.066245 *  0.295785 *  -1.21800    1.000000    
    336 O2    c    0.898500 *  0.066147 *  0.295778 *  -1.21800    1.000000    
    337 O2    c    0.731844 *  0.066159 *  0.295771 *  -1.21800    1.000000    
    338 O2    c    0.565449 *  0.066098 *  0.295763 *  -1.21800    1.000000    
    339 O2    c    0.398938 *  0.066249 *  0.295766 *  -1.21800    1.000000    
    340 O2    c    0.232105 *  0.732462 *  0.295521 *  -1.21800    1.000000    
    341 O2    c    0.066294 *  0.732570 *  0.295472 *  -1.21800    1.000000    
    342 O2    c    0.898608 *  0.732454 *  0.295708 *  -1.21800    1.000000    
    343 O2    c    0.731836 *  0.732398 *  0.295808 *  -1.21800    1.000000    
    344 O2    c    0.565315 *  0.732495 *  0.295700 *  -1.21800    1.000000    
    345 O2    c    0.315366 *  0.501396 *  0.284870 *  -1.21800    1.000000    
    346 O2    c    0.315429 *  0.630901 *  0.284773 *  -1.21800    1.000000    
    347 O2    c    0.148805 *  0.168007 *  0.284929 *  -1.21800    1.000000    
    348 O2    c    0.148765 *  0.297676 *  0.284901 *  -1.21800    1.000000    
    349 O2    c    0.981986 *  0.168012 *  0.284963 *  -1.21800    1.000000    
    350 O2    c    0.982078 *  0.297596 *  0.284904 *  -1.21800    1.000000    
    351 O2    c    0.815276 *  0.167950 *  0.284954 *  -1.21800    1.000000    
    352 O2    c    0.815300 *  0.297587 *  0.284875 *  -1.21800    1.000000    
    353 O2    c    0.648717 *  0.167942 *  0.284945 *  -1.21800    1.000000    
    354 O2    c    0.648710 *  0.297576 *  0.284879 *  -1.21800    1.000000    
    355 O2    c    0.482106 *  0.167974 *  0.284947 *  -1.21800    1.000000    
    356 O2    c    0.482041 *  0.297578 *  0.284897 *  -1.21800    1.000000    
    357 O2    c    0.315425 *  0.167994 *  0.284932 *  -1.21800    1.000000    
    358 O2    c    0.315413 *  0.297659 *  0.284908 *  -1.21800    1.000000    
    359 O2    c    0.148858 *  0.834075 *  0.285000 *  -1.21800    1.000000    
    360 O2    c    0.148785 *  0.964231 *  0.285156 *  -1.21800    1.000000    
    361 O2    c    0.982440 *  0.834351 *  0.285101 *  -1.21800    1.000000    
    362 O2    c    0.982495 *  0.964060 *  0.285182 *  -1.21800    1.000000    
    363 O2    c    0.815482 *  0.834515 *  0.285050 *  -1.21800    1.000000    
    364 O2    c    0.815447 *  0.964094 *  0.285033 *  -1.21800    1.000000    
    365 O2    c    0.648681 *  0.834454 *  0.284965 *  -1.21800    1.000000    
    366 O2    c    0.648716 *  0.964143 *  0.284949 *  -1.21800    1.000000    
    367 O2    c    0.481905 *  0.834432 *  0.284978 *  -1.21800    1.000000    
    368 O2    c    0.481858 *  0.963969 *  0.285058 *  -1.21800    1.000000    
    369 O2    c    0.315026 *  0.834296 *  0.285043 *  -1.21800    1.000000    
    370 O2    c    0.315091 *  0.963985 *  0.285199 *  -1.21800    1.000000    
    371 O2    c    0.148814 *  0.501375 *  0.284861 *  -1.21800    1.000000    
    372 O2    c    0.148805 *  0.630889 *  0.284763 *  -1.21800    1.000000    
    373 O2    c    0.982067 *  0.501251 *  0.284922 *  -1.21800    1.000000    
    374 O2    c    0.981871 *  0.630625 *  0.284918 *  -1.21800    1.000000    
    375 O2    c    0.815106 *  0.500878 *  0.284852 *  -1.21800    1.000000    
    376 O2    c    0.815094 *  0.630702 *  0.284977 *  -1.21800    1.000000    
    377 O2    c    0.648900 *  0.500895 *  0.284858 *  -1.21800    1.000000    
    378 O2    c    0.648897 *  0.630712 *  0.284969 *  -1.21800    1.000000    
    379 O2    c    0.482057 *  0.501267 *  0.284915 *  -1.21800    1.000000    
    380 O2    c    0.482216 *  0.630670 *  0.284912 *  -1.21800    1.000000    
    381 O2    c    0.399085 *  0.732585 *  0.273955 *  -1.21800    1.000000    
    382 O2    c    0.232078 *  0.399566 *  0.274077 *  -1.21800    1.000000    
    383 O2    c    0.065499 *  0.399555 *  0.274064 *  -1.21800    1.000000    
    384 O2    c    0.898969 *  0.399334 *  0.274013 *  -1.21800    1.000000    
    385 O2    c    0.732036 *  0.399050 *  0.273970 *  -1.21800    1.000000    
    386 O2    c    0.565130 *  0.399336 *  0.273999 *  -1.21800    1.000000    
    387 O2    c    0.398599 *  0.399555 *  0.274053 *  -1.21800    1.000000    
    388 O2    c    0.232142 *  0.066054 *  0.274194 *  -1.21800    1.000000    
    389 O2    c    0.065354 *  0.066177 *  0.274201 *  -1.21800    1.000000    
    390 O2    c    0.898793 *  0.065932 *  0.274193 *  -1.21800    1.000000    
    391 O2    c    0.732086 *  0.065993 *  0.274163 *  -1.21800    1.000000    
    392 O2    c    0.565299 *  0.065932 *  0.274159 *  -1.21800    1.000000    
    393 O2    c    0.398673 *  0.065812 *  0.274181 *  -1.21800    1.000000    
    394 O2    c    0.232158 *  0.732366 *  0.273898 *  -1.21800    1.000000    
    395 O2    c    0.064923 *  0.732232 *  0.273961 *  -1.21800    1.000000    
    396 O2    c    0.898422 *  0.732619 *  0.274109 *  -1.21800    1.000000    
    397 O2    c    0.732079 *  0.732817 *  0.274160 *  -1.21800    1.000000    
    398 O2    c    0.565638 *  0.732613 *  0.274082 *  -1.21800    1.000000    
    399 O2    c    0.398648 *  0.566009 *  0.268251 *  -1.21800    1.000000    
    400 O2    c    0.232111 *  0.232831 *  0.268372 *  -1.21800    1.000000    
    401 O2    c    0.065392 *  0.232796 *  0.268378 *  -1.21800    1.000000    
    402 O2    c    0.898701 *  0.232765 *  0.268381 *  -1.21800    1.000000    
    403 O2    c    0.732003 *  0.232739 *  0.268378 *  -1.21800    1.000000    
    404 O2    c    0.565360 *  0.232758 *  0.268365 *  -1.21800    1.000000    
    405 O2    c    0.398754 *  0.232779 *  0.268364 *  -1.21800    1.000000    
    406 O2    c    0.232295 *  0.899255 *  0.268698 *  -1.21800    1.000000    
    407 O2    c    0.065340 *  0.899229 *  0.268729 *  -1.21800    1.000000    
    408 O2    c    0.898632 *  0.899259 *  0.268572 *  -1.21800    1.000000    
    409 O2    c    0.731983 *  0.899247 *  0.268450 *  -1.21800    1.000000    
    410 O2    c    0.565313 *  0.899261 *  0.268428 *  -1.21800    1.000000    
    411 O2    c    0.398796 *  0.899229 *  0.268515 *  -1.21800    1.000000    
    412 O2    c    0.232112 *  0.566023 *  0.268221 *  -1.21800    1.000000    
    413 O2    c    0.065497 *  0.565988 *  0.268262 *  -1.21800    1.000000    
    414 O2    c    0.898885 *  0.565933 *  0.268390 *  -1.21800    1.000000    
    415 O2    c    0.732001 *  0.565959 *  0.268469 *  -1.21800    1.000000    
    416 O2    c    0.565173 *  0.565945 *  0.268376 *  -1.21800    1.000000    
    417 O2    c    0.315471 *  0.667145 *  0.257303 *  -1.21800    1.000000    
    418 O2    c    0.315378 *  0.464913 *  0.257344 *  -1.21800    1.000000    
    419 O2    c    0.148758 *  0.333872 *  0.257411 *  -1.21800    1.000000    
    420 O2    c    0.148756 *  0.131574 *  0.257500 *  -1.21800    1.000000    
    421 O2    c    0.982124 *  0.333837 *  0.257389 *  -1.21800    1.000000    
    422 O2    c    0.982046 *  0.131572 *  0.257492 *  -1.21800    1.000000    
    423 O2    c    0.815421 *  0.333813 *  0.257374 *  -1.21800    1.000000    
    424 O2    c    0.815395 *  0.131540 *  0.257488 *  -1.21800    1.000000    
    425 O2    c    0.648645 *  0.333809 *  0.257368 *  -1.21800    1.000000    
    426 O2    c    0.648693 *  0.131524 *  0.257480 *  -1.21800    1.000000    
    427 O2    c    0.481980 *  0.333832 *  0.257379 *  -1.21800    1.000000    
    428 O2    c    0.482026 *  0.131525 *  0.257484 *  -1.21800    1.000000    
    429 O2    c    0.315392 *  0.333866 *  0.257404 *  -1.21800    1.000000    
    430 O2    c    0.315421 *  0.131554 *  0.257490 *  -1.21800    1.000000    
    431 O2    c    0.148756 *  0.000451 *  0.257621 *  -1.21800    1.000000    
    432 O2    c    0.148698 *  0.798036 *  0.257507 *  -1.21800    1.000000    
    433 O2    c    0.982120 *  0.000450 *  0.257590 *  -1.21800    1.000000    
    434 O2    c    0.981973 *  0.798132 *  0.257495 *  -1.21800    1.000000    
    435 O2    c    0.815411 *  0.000467 *  0.257529 *  -1.21800    1.000000    
    436 O2    c    0.815356 *  0.798199 *  0.257472 *  -1.21800    1.000000    
    437 O2    c    0.648687 *  0.000472 *  0.257496 *  -1.21800    1.000000    
    438 O2    c    0.648731 *  0.798192 *  0.257442 *  -1.21800    1.000000    
    439 O2    c    0.481998 *  0.000434 *  0.257507 *  -1.21800    1.000000    
    440 O2    c    0.482134 *  0.798148 *  0.257416 *  -1.21800    1.000000    
    441 O2    c    0.315370 *  0.000421 *  0.257563 *  -1.21800    1.000000    
    442 O2    c    0.315429 *  0.798073 *  0.257448 *  -1.21800    1.000000    
    443 O2    c    0.148708 *  0.667129 *  0.257312 *  -1.21800    1.000000    
    444 O2    c    0.148772 *  0.464907 *  0.257350 *  -1.21800    1.000000    
    445 O2    c    0.981904 *  0.667062 *  0.257369 *  -1.21800    1.000000    
    446 O2    c    0.982115 *  0.464873 *  0.257367 *  -1.21800    1.000000    
    447 O2    c    0.815316 *  0.667075 *  0.257460 *  -1.21800    1.000000    
    448 O2    c    0.815390 *  0.464789 *  0.257406 *  -1.21800    1.000000    
    449 O2    c    0.648760 *  0.667093 *  0.257455 *  -1.21800    1.000000    
    450 O2    c    0.648675 *  0.464793 *  0.257401 *  -1.21800    1.000000    
    451 O2    c    0.482156 *  0.667109 *  0.257368 *  -1.21800    1.000000    
    452 O2    c    0.481988 *  0.464877 *  0.257358 *  -1.21800    1.000000    
    453 O2    c    0.398897 *  0.566060 *  0.246881 *  -1.21800    1.000000    
    454 O2    c    0.232064 *  0.232722 *  0.246998 *  -1.21800    1.000000    
    455 O2    c    0.065415 *  0.232714 *  0.247004 *  -1.21800    1.000000    
    456 O2    c    0.898719 *  0.232697 *  0.247003 *  -1.21800    1.000000    
    457 O2    c    0.732048 *  0.232661 *  0.246995 *  -1.21800    1.000000    
    458 O2    c    0.565370 *  0.232635 *  0.246985 *  -1.21800    1.000000    
    459 O2    c    0.398709 *  0.232679 *  0.246987 *  -1.21800    1.000000    
    460 O2    c    0.231809 *  0.899128 *  0.247256 *  -1.21800    1.000000    
    461 O2    c    0.065586 *  0.899208 *  0.247287 *  -1.21800    1.000000    
    462 O2    c    0.899038 *  0.899361 *  0.247184 *  -1.21800    1.000000    
    463 O2    c    0.732189 *  0.899418 *  0.247084 *  -1.21800    1.000000    
    464 O2    c    0.565306 *  0.899361 *  0.247058 *  -1.21800    1.000000    
    465 O2    c    0.398419 *  0.899217 *  0.247127 *  -1.21800    1.000000    
    466 O2    c    0.232065 *  0.566104 *  0.246850 *  -1.21800    1.000000    
    467 O2    c    0.065229 *  0.566032 *  0.246896 *  -1.21800    1.000000    
    468 O2    c    0.898446 *  0.565896 *  0.246996 *  -1.21800    1.000000    
    469 O2    c    0.732043 *  0.565867 *  0.247049 *  -1.21800    1.000000    
    470 O2    c    0.565637 *  0.565956 *  0.246981 *  -1.21800    1.000000    
    471 O2    c    0.398657 *  0.732678 *  0.240398 *  -1.21800    1.000000    
    472 O2    c    0.232079 *  0.399284 *  0.240444 *  -1.21800    1.000000    
    473 O2    c    0.065404 *  0.399301 *  0.240442 *  -1.21800    1.000000    
    474 O2    c    0.898695 *  0.399337 *  0.240425 *  -1.21800    1.000000    
    475 O2    c    0.732028 *  0.399350 *  0.240409 *  -1.21800    1.000000    
    476 O2    c    0.565385 *  0.399339 *  0.240414 *  -1.21800    1.000000    
    477 O2    c    0.398731 *  0.399302 *  0.240430 *  -1.21800    1.000000    
    478 O2    c    0.232079 *  0.065982 *  0.240610 *  -1.21800    1.000000    
    479 O2    c    0.065420 *  0.065967 *  0.240618 *  -1.21800    1.000000    
    480 O2    c    0.898718 *  0.065980 *  0.240594 *  -1.21800    1.000000    
    481 O2    c    0.732027 *  0.066009 *  0.240563 *  -1.21800    1.000000    
    482 O2    c    0.565363 *  0.066017 *  0.240555 *  -1.21800    1.000000    
    483 O2    c    0.398730 *  0.066014 *  0.240578 *  -1.21800    1.000000    
    484 O2    c    0.232073 *  0.732734 *  0.240370 *  -1.21800    1.000000    
    485 O2    c    0.065491 *  0.732726 *  0.240432 *  -1.21800    1.000000    
    486 O2    c    0.898768 *  0.732653 *  0.240513 *  -1.21800    1.000000    
    487 O2    c    0.732025 *  0.732601 *  0.240539 *  -1.21800    1.000000    
    488 O2    c    0.565313 *  0.732614 *  0.240479 *  -1.21800    1.000000    
    489 O2    c    0.315444 *  0.505389 *  0.229195 *  -1.21800    1.000000    
    490 O2    c    0.148731 *  0.171945 *  0.229341 *  -1.21800    1.000000    
    491 O2    c    0.982057 *  0.171943 *  0.229339 *  -1.21800    1.000000    
    492 O2    c    0.815397 *  0.171938 *  0.229317 *  -1.21800    1.000000    
    493 O2    c    0.648721 *  0.171936 *  0.229298 *  -1.21800    1.000000    
    494 O2    c    0.482037 *  0.171936 *  0.229299 *  -1.21800    1.000000    
    495 O2    c    0.315387 *  0.171940 *  0.229321 *  -1.21800    1.000000    
    496 O2    c    0.148689 *  0.838624 *  0.229392 *  -1.21800    1.000000    
    497 O2    c    0.982215 *  0.838656 *  0.229426 *  -1.21800    1.000000    
    498 O2    c    0.815547 *  0.838701 *  0.229409 *  -1.21800    1.000000    
    499 O2    c    0.648742 *  0.838709 *  0.229361 *  -1.21800    1.000000    
    500 O2    c    0.481934 *  0.838696 *  0.229333 *  -1.21800    1.000000    
    501 O2    c    0.315211 *  0.838658 *  0.229350 *  -1.21800    1.000000    
    502 O2    c    0.148660 *  0.505387 *  0.229201 *  -1.21800    1.000000    
    503 O2    c    0.981912 *  0.505359 *  0.229231 *  -1.21800    1.000000    
    504 O2    c    0.815302 *  0.505315 *  0.229250 *  -1.21800    1.000000    
    505 O2    c    0.648804 *  0.505320 *  0.229245 *  -1.21800    1.000000    
    506 O2    c    0.482200 *  0.505365 *  0.229220 *  -1.21800    1.000000    
    507 O2    c    0.315454 *  0.626696 *  0.229150 *  -1.21800    1.000000    
    508 O2    c    0.148724 *  0.293289 *  0.229252 *  -1.21800    1.000000    
    509 O2    c    0.982074 *  0.293284 *  0.229257 *  -1.21800    1.000000    
    510 O2    c    0.815399 *  0.293275 *  0.229254 *  -1.21800    1.000000    
    511 O2    c    0.648712 *  0.293269 *  0.229248 *  -1.21800    1.000000    
    512 O2    c    0.482039 *  0.293277 *  0.229245 *  -1.21800    1.000000    
    513 O2    c    0.315378 *  0.293287 *  0.229247 *  -1.21800    1.000000    
    514 O2    c    0.148694 *  0.960013 *  0.229516 *  -1.21800    1.000000    
    515 O2    c    0.982216 *  0.960005 *  0.229490 *  -1.21800    1.000000    
    516 O2    c    0.815539 *  0.959987 *  0.229411 *  -1.21800    1.000000    
    517 O2    c    0.648751 *  0.959978 *  0.229362 *  -1.21800    1.000000    
    518 O2    c    0.481936 *  0.959967 *  0.229394 *  -1.21800    1.000000    
    519 O2    c    0.315205 *  0.959981 *  0.229473 *  -1.21800    1.000000    
    520 O2    c    0.148663 *  0.626692 *  0.229167 *  -1.21800    1.000000    
    521 O2    c    0.981896 *  0.626695 *  0.229252 *  -1.21800    1.000000    
    522 O2    c    0.815302 *  0.626718 *  0.229312 *  -1.21800    1.000000    
    523 O2    c    0.648809 *  0.626720 *  0.229295 *  -1.21800    1.000000    
    524 O2    c    0.482196 *  0.626702 *  0.229216 *  -1.21800    1.000000    
    525 O2    c    0.398877 *  0.732838 *  0.219747 *  -1.21800    1.000000    
    526 O2    c    0.232037 *  0.399441 *  0.219786 *  -1.21800    1.000000    
    527 O2    c    0.065392 *  0.399405 *  0.219783 *  -1.21800    1.000000    
    528 O2    c    0.898756 *  0.399246 *  0.219766 *  -1.21800    1.000000    
    529 O2    c    0.732070 *  0.399132 *  0.219750 *  -1.21800    1.000000    
    530 O2    c    0.565370 *  0.399243 *  0.219756 *  -1.21800    1.000000    
    531 O2    c    0.398698 *  0.399400 *  0.219774 *  -1.21800    1.000000    
    532 O2    c    0.231985 *  0.065850 *  0.219949 *  -1.21800    1.000000    
    533 O2    c    0.065418 *  0.065922 *  0.219956 *  -1.21800    1.000000    
    534 O2    c    0.898833 *  0.065833 *  0.219936 *  -1.21800    1.000000    
    535 O2    c    0.732135 *  0.065817 *  0.219908 *  -1.21800    1.000000    
    536 O2    c    0.565354 *  0.065775 *  0.219901 *  -1.21800    1.000000    
    537 O2    c    0.398611 *  0.065718 *  0.219923 *  -1.21800    1.000000    
    538 O2    c    0.231994 *  0.732680 *  0.219719 *  -1.21800    1.000000    
    539 O2    c    0.065156 *  0.732640 *  0.219774 *  -1.21800    1.000000    
    540 O2    c    0.898574 *  0.732882 *  0.219852 *  -1.21800    1.000000    
    541 O2    c    0.732126 *  0.733027 *  0.219874 *  -1.21800    1.000000    
    542 O2    c    0.565599 *  0.732944 *  0.219822 *  -1.21800    1.000000    
    543 O176  c    0.680216 *  0.459164 *  0.358889 *  -1.08000    1.000000    
    544 O177  c    0.145046 *  0.897784 *  0.422966 *  -1.08000    1.000000    
    545 O176  c    0.680216 *  0.336404 *  0.358889 *  -1.08000    1.000000    
    546 O177  c    0.267806 *  0.897784 *  0.422966 *  -1.08000    1.000000    
    547 O176  c    0.241596 *  0.897784 *  0.358889 *  -1.08000    1.000000    
    548 O177  c    0.706426 *  0.459164 *  0.422966 *  -1.08000    1.000000    
    549 O176  c    0.118836 *  0.897784 *  0.358889 *  -1.08000    1.000000    
    550 O177  c    0.706426 *  0.336404 *  0.422966 *  -1.08000    1.000000    
    551 O171  c    0.217822 *  0.897784 *  0.450826 *  -2.00000    1.000000    
    552 O171  c    0.717822 *  0.397784 *  0.450826 *  -2.00000    1.000000    
    553 O170  c    0.306419 *  0.750814 *  0.458179 *  -1.08000    1.000000    
    554 O170  c    0.067844 *  0.983374 *  0.443473 *  -1.08000    1.000000    
    555 O170  c    0.361784 *  0.812194 *  0.443473 *  -1.08000    1.000000    
    556 O170  c    0.135239 *  0.044754 *  0.458179 *  -1.08000    1.000000    
    557 O170  c    0.361784 *  0.983374 *  0.443473 *  -1.08000    1.000000    
    558 O170  c    0.067844 *  0.812194 *  0.443473 *  -1.08000    1.000000    
    559 O170  c    0.306419 *  0.044754 *  0.458179 *  -1.08000    1.000000    
    560 O170  c    0.135239 *  0.750814 *  0.458179 *  -1.08000    1.000000    
    561 O170  c    0.229217 *  0.959164 *  0.478686 *  -1.08000    1.000000    
    562 O170  c    0.694047 *  0.397784 *  0.542764 *  -1.08000    1.000000    
    563 O170  c    0.229217 *  0.836404 *  0.478686 *  -1.08000    1.000000    
    564 O170  c    0.816807 *  0.397784 *  0.542764 *  -1.08000    1.000000    
    565 O170  c    0.790597 *  0.397784 *  0.478686 *  -1.08000    1.000000    
    566 O170  c    0.255427 *  0.959164 *  0.542764 *  -1.08000    1.000000    
    567 O170  c    0.667837 *  0.397784 *  0.478686 *  -1.08000    1.000000    
    568 O170  c    0.255427 *  0.836404 *  0.542764 *  -1.08000    1.000000    
    569 O170  c    0.573859 *  0.312194 *  0.458179 *  -1.08000    1.000000    
    570 O170  c    0.800404 *  0.544754 *  0.443473 *  -1.08000    1.000000    
    571 O170  c    0.629224 *  0.250814 *  0.443473 *  -1.08000    1.000000    
    572 O170  c    0.867799 *  0.483374 *  0.458179 *  -1.08000    1.000000    
    573 O170  c    0.800404 *  0.250814 *  0.443473 *  -1.08000    1.000000    
    574 O170  c    0.629224 *  0.544754 *  0.443473 *  -1.08000    1.000000    
    575 O170  c    0.867799 *  0.312194 *  0.458179 *  -1.08000    1.000000    
    576 O170  c    0.573859 *  0.483374 *  0.458179 *  -1.08000    1.000000    
    577 O171  c    0.766823 *  0.397784 *  0.570624 *  -2.00000    1.000000    
    578 O171  c    0.266823 *  0.897784 *  0.570624 *  -2.00000    1.000000    
    579 O170  c    0.855421 *  0.250814 *  0.577977 *  -1.08000    1.000000    
    580 O170  c    0.616845 *  0.483374 *  0.563271 *  -1.08000    1.000000    
    581 O170  c    0.910785 *  0.312194 *  0.563271 *  -1.08000    1.000000    
    582 O170  c    0.684241 *  0.544754 *  0.577977 *  -1.08000    1.000000    
    583 O170  c    0.910785 *  0.483374 *  0.563271 *  -1.08000    1.000000    
    584 O170  c    0.616845 *  0.312194 *  0.563271 *  -1.08000    1.000000    
    585 O170  c    0.855421 *  0.544754 *  0.577977 *  -1.08000    1.000000    
    586 O170  c    0.684241 *  0.250814 *  0.577977 *  -1.08000    1.000000    
    587 O170  c    0.778219 *  0.459164 *  0.598484 *  -1.08000    1.000000    
    588 O170  c    0.243049 *  0.897784 *  0.662562 *  -1.08000    1.000000    
    589 O170  c    0.778219 *  0.336404 *  0.598484 *  -1.08000    1.000000    
    590 O170  c    0.365809 *  0.897784 *  0.662562 *  -1.08000    1.000000    
    591 O170  c    0.339599 *  0.897784 *  0.598484 *  -1.08000    1.000000    
    592 O170  c    0.804429 *  0.459164 *  0.662562 *  -1.08000    1.000000    
    593 O170  c    0.216839 *  0.897784 *  0.598484 *  -1.08000    1.000000    
    594 O170  c    0.804429 *  0.336404 *  0.662562 *  -1.08000    1.000000    
    595 O170  c    0.122861 *  0.812194 *  0.577977 *  -1.08000    1.000000    
    596 O170  c    0.349405 *  0.044754 *  0.563271 *  -1.08000    1.000000    
    597 O170  c    0.178225 *  0.750814 *  0.563271 *  -1.08000    1.000000    
    598 O170  c    0.416801 *  0.983374 *  0.577977 *  -1.08000    1.000000    
    599 O170  c    0.349405 *  0.750814 *  0.563271 *  -1.08000    1.000000    
    600 O170  c    0.178225 *  0.044754 *  0.563271 *  -1.08000    1.000000    
    601 O170  c    0.416801 *  0.812194 *  0.577977 *  -1.08000    1.000000    
    602 O170  c    0.122861 *  0.983374 *  0.577977 *  -1.08000    1.000000    
    603 O171  c    0.315824 *  0.897784 *  0.690422 *  -2.00000    1.000000    
    604 O171  c    0.815824 *  0.397784 *  0.690422 *  -2.00000    1.000000    
    605 O170  c    0.404422 *  0.750814 *  0.697775 *  -1.08000    1.000000    
    606 O170  c    0.165847 *  0.983374 *  0.683069 *  -1.08000    1.000000    
    607 O170  c    0.459787 *  0.812194 *  0.683069 *  -1.08000    1.000000    
    608 O170  c    0.233242 *  0.044754 *  0.697775 *  -1.08000    1.000000    
    609 O170  c    0.459787 *  0.983374 *  0.683069 *  -1.08000    1.000000    
    610 O170  c    0.165847 *  0.812194 *  0.683069 *  -1.08000    1.000000    
    611 O170  c    0.404422 *  0.044754 *  0.697775 *  -1.08000    1.000000    
    612 O170  c    0.233242 *  0.750814 *  0.697775 *  -1.08000    1.000000    
    613 O170  c    0.327220 *  0.959164 *  0.718282 *  -1.08000    1.000000    
    614 O173  c    0.792050 *  0.397784 *  0.782360 *  -0.69000    1.000000    
    615 O170  c    0.327220 *  0.836404 *  0.718282 *  -1.08000    1.000000    
    616 O172  c    0.914810 *  0.397784 *  0.782360 *  -0.69000    1.000000    
    617 H21   c    0.914810 *  0.397784 *  0.791065 *   0.22000    1.000000    
    618 O170  c    0.888600 *  0.397784 *  0.718282 *  -1.08000    1.000000    
    619 O173  c    0.353430 *  0.959164 *  0.782360 *  -0.69000    1.000000    
    620 O170  c    0.765840 *  0.397784 *  0.718282 *  -1.08000    1.000000    
    621 O172  c    0.353430 *  0.836404 *  0.782360 *  -0.69000    1.000000    
    622 H21   c    0.353430 *  0.836404 *  0.791065 *   0.22000    1.000000    
    623 O170  c    0.671862 *  0.312194 *  0.697775 *  -1.08000    1.000000    
    624 O170  c    0.898407 *  0.544754 *  0.683069 *  -1.08000    1.000000    
    625 O170  c    0.727227 *  0.250814 *  0.683069 *  -1.08000    1.000000    
    626 O170  c    0.965802 *  0.483374 *  0.697775 *  -1.08000    1.000000    
    627 O170  c    0.898407 *  0.250814 *  0.683069 *  -1.08000    1.000000    
    628 O170  c    0.727227 *  0.544754 *  0.683069 *  -1.08000    1.000000    
    629 O170  c    0.965802 *  0.312194 *  0.697775 *  -1.08000    1.000000    
    630 O170  c    0.671862 *  0.483374 *  0.697775 *  -1.08000    1.000000    
    631 C912  c    0.690697 *  0.463704 *  0.384513 *  -0.07025    1.000000    
    632 C912  c    0.130024 *  0.897784 *  0.397341 *  -0.07025    1.000000    
    633 C912  c    0.690697 *  0.331864 *  0.384513 *  -0.07025    1.000000    
    634 C912  c    0.261864 *  0.897784 *  0.397341 *  -0.07025    1.000000    
    635 C912  c    0.256617 *  0.897784 *  0.384513 *  -0.07025    1.000000    
    636 C912  c    0.695944 *  0.463704 *  0.397341 *  -0.07025    1.000000    
    637 C912  c    0.124777 *  0.897784 *  0.384513 *  -0.07025    1.000000    
    638 C912  c    0.695944 *  0.331864 *  0.397341 *  -0.07025    1.000000    
    639 C916  c    0.682390 *  0.397784 *  0.364203 *   1.07050    1.000000    
    640 C917  c    0.204252 *  0.897784 *  0.417652 *   1.07050    1.000000    
    641 C916  c    0.182390 *  0.897784 *  0.364203 *   1.07050    1.000000    
    642 C917  c    0.704252 *  0.397784 *  0.417652 *   1.07050    1.000000    
    643 C902  c    0.688055 *  0.397784 *  0.378054 *   0.00500    1.000000    
    644 C902  c    0.198587 *  0.897784 *  0.403801 *   0.00500    1.000000    
    645 C902  c    0.188055 *  0.897784 *  0.378054 *   0.00500    1.000000    
    646 C902  c    0.698587 *  0.397784 *  0.403801 *   0.00500    1.000000    
    647 C912  c    0.411322 *  0.641594 *  0.458723 *  -0.07025    1.000000    
    648 C912  c    0.958401 *  0.088054 *  0.442929 *  -0.07025    1.000000    
    649 C912  c    0.470781 *  0.707514 *  0.442929 *  -0.07025    1.000000    
    650 C912  c    0.030782 *  0.153974 *  0.458723 *  -0.07025    1.000000    
    651 C912  c    0.470781 *  0.088054 *  0.442929 *  -0.07025    1.000000    
    652 C912  c    0.958401 *  0.707514 *  0.442929 *  -0.07025    1.000000    
    653 C912  c    0.411322 *  0.153974 *  0.458723 *  -0.07025    1.000000    
    654 C912  c    0.030782 *  0.641594 *  0.458723 *  -0.07025    1.000000    
    655 C912  c    0.239699 *  0.963704 *  0.504311 *  -0.07025    1.000000    
    656 C912  c    0.679026 *  0.397784 *  0.517139 *  -0.07025    1.000000    
    657 C912  c    0.239699 *  0.831864 *  0.504311 *  -0.07025    1.000000    
    658 C912  c    0.810866 *  0.397784 *  0.517139 *  -0.07025    1.000000    
    659 C912  c    0.805619 *  0.397784 *  0.504311 *  -0.07025    1.000000    
    660 C912  c    0.244946 *  0.963704 *  0.517139 *  -0.07025    1.000000    
    661 C912  c    0.673779 *  0.397784 *  0.504311 *  -0.07025    1.000000    
    662 C912  c    0.244946 *  0.831864 *  0.517139 *  -0.07025    1.000000    
    663 C912  c    0.464862 *  0.207514 *  0.458723 *  -0.07025    1.000000    
    664 C912  c    0.904862 *  0.653974 *  0.442929 *  -0.07025    1.000000    
    665 C912  c    0.524321 *  0.141594 *  0.442929 *  -0.07025    1.000000    
    666 C912  c    0.977242 *  0.588054 *  0.458723 *  -0.07025    1.000000    
    667 C912  c    0.904862 *  0.141594 *  0.442929 *  -0.07025    1.000000    
    668 C912  c    0.524321 *  0.653974 *  0.442929 *  -0.07025    1.000000    
    669 C912  c    0.977242 *  0.207514 *  0.458723 *  -0.07025    1.000000    
    670 C912  c    0.464862 *  0.588054 *  0.458723 *  -0.07025    1.000000    
    671 C913  c    0.356282 *  0.759324 *  0.450826 *   1.07050    1.000000    
    672 C913  c    0.079362 *  0.036244 *  0.450826 *   1.07050    1.000000    
    673 C913  c    0.356282 *  0.036244 *  0.450826 *   1.07050    1.000000    
    674 C913  c    0.079362 *  0.759324 *  0.450826 *   1.07050    1.000000    
    675 C913  c    0.231391 *  0.897784 *  0.484001 *   1.07050    1.000000    
    676 C913  c    0.753253 *  0.397784 *  0.537450 *   1.07050    1.000000    
    677 C913  c    0.731391 *  0.397784 *  0.484001 *   1.07050    1.000000    
    678 C913  c    0.253253 *  0.897784 *  0.537450 *   1.07050    1.000000    
    679 C913  c    0.579362 *  0.259324 *  0.450826 *   1.07050    1.000000    
    680 C913  c    0.856282 *  0.536244 *  0.450826 *   1.07050    1.000000    
    681 C913  c    0.856282 *  0.259324 *  0.450826 *   1.07050    1.000000    
    682 C913  c    0.579362 *  0.536244 *  0.450826 *   1.07050    1.000000    
    683 C902  c    0.414092 *  0.701514 *  0.450826 *   0.00500    1.000000    
    684 C902  c    0.021552 *  0.094054 *  0.450826 *   0.00500    1.000000    
    685 C902  c    0.414092 *  0.094054 *  0.450826 *   0.00500    1.000000    
    686 C902  c    0.021552 *  0.701514 *  0.450826 *   0.00500    1.000000    
    687 C902  c    0.237057 *  0.897784 *  0.497852 *   0.00500    1.000000    
    688 C902  c    0.747588 *  0.397784 *  0.523599 *   0.00500    1.000000    
    689 C902  c    0.737057 *  0.397784 *  0.497852 *   0.00500    1.000000    
    690 C902  c    0.247588 *  0.897784 *  0.523599 *   0.00500    1.000000    
    691 C902  c    0.521552 *  0.201514 *  0.450826 *   0.00500    1.000000    
    692 C902  c    0.914092 *  0.594054 *  0.450826 *   0.00500    1.000000    
    693 C902  c    0.914092 *  0.201514 *  0.450826 *   0.00500    1.000000    
    694 C902  c    0.521552 *  0.594054 *  0.450826 *   0.00500    1.000000    
    695 C912  c    0.960323 *  0.141594 *  0.578521 *  -0.07025    1.000000    
    696 C912  c    0.507403 *  0.588054 *  0.562727 *  -0.07025    1.000000    
    697 C912  c    0.019783 *  0.207514 *  0.562727 *  -0.07025    1.000000    
    698 C912  c    0.579783 *  0.653974 *  0.578521 *  -0.07025    1.000000    
    699 C912  c    0.019783 *  0.588054 *  0.562727 *  -0.07025    1.000000    
    700 C912  c    0.507403 *  0.207514 *  0.562727 *  -0.07025    1.000000    
    701 C912  c    0.960323 *  0.653974 *  0.578521 *  -0.07025    1.000000    
    702 C912  c    0.579783 *  0.141594 *  0.578521 *  -0.07025    1.000000    
    703 C912  c    0.788700 *  0.463704 *  0.624109 *  -0.07025    1.000000    
    704 C912  c    0.228027 *  0.897784 *  0.636937 *  -0.07025    1.000000    
    705 C912  c    0.788700 *  0.331864 *  0.624109 *  -0.07025    1.000000    
    706 C912  c    0.359867 *  0.897784 *  0.636937 *  -0.07025    1.000000    
    707 C912  c    0.354620 *  0.897784 *  0.624109 *  -0.07025    1.000000    
    708 C912  c    0.793947 *  0.463704 *  0.636937 *  -0.07025    1.000000    
    709 C912  c    0.222780 *  0.897784 *  0.624109 *  -0.07025    1.000000    
    710 C912  c    0.793947 *  0.331864 *  0.636937 *  -0.07025    1.000000    
    711 C912  c    0.013863 *  0.707514 *  0.578521 *  -0.07025    1.000000    
    712 C912  c    0.453863 *  0.153974 *  0.562727 *  -0.07025    1.000000    
    713 C912  c    0.073323 *  0.641594 *  0.562727 *  -0.07025    1.000000    
    714 C912  c    0.526243 *  0.088054 *  0.578521 *  -0.07025    1.000000    
    715 C912  c    0.453863 *  0.641594 *  0.562727 *  -0.07025    1.000000    
    716 C912  c    0.073323 *  0.153974 *  0.562727 *  -0.07025    1.000000    
    717 C912  c    0.526243 *  0.707514 *  0.578521 *  -0.07025    1.000000    
    718 C912  c    0.013863 *  0.088054 *  0.578521 *  -0.07025    1.000000    
    719 C913  c    0.905283 *  0.259324 *  0.570624 *   1.07050    1.000000    
    720 C913  c    0.628363 *  0.536244 *  0.570624 *   1.07050    1.000000    
    721 C913  c    0.905283 *  0.536244 *  0.570624 *   1.07050    1.000000    
    722 C913  c    0.628363 *  0.259324 *  0.570624 *   1.07050    1.000000    
    723 C913  c    0.780392 *  0.397784 *  0.603799 *   1.07050    1.000000    
    724 C913  c    0.302255 *  0.897784 *  0.657248 *   1.07050    1.000000    
    725 C913  c    0.280392 *  0.897784 *  0.603799 *   1.07050    1.000000    
    726 C913  c    0.802255 *  0.397784 *  0.657248 *   1.07050    1.000000    
    727 C913  c    0.128363 *  0.759324 *  0.570624 *   1.07050    1.000000    
    728 C913  c    0.405283 *  0.036244 *  0.570624 *   1.07050    1.000000    
    729 C913  c    0.405283 *  0.759324 *  0.570624 *   1.07050    1.000000    
    730 C913  c    0.128363 *  0.036244 *  0.570624 *   1.07050    1.000000    
    731 C902  c    0.963093 *  0.201514 *  0.570624 *   0.00500    1.000000    
    732 C902  c    0.570553 *  0.594054 *  0.570624 *   0.00500    1.000000    
    733 C902  c    0.963093 *  0.594054 *  0.570624 *   0.00500    1.000000    
    734 C902  c    0.570553 *  0.201514 *  0.570624 *   0.00500    1.000000    
    735 C902  c    0.786058 *  0.397784 *  0.617650 *   0.00500    1.000000    
    736 C902  c    0.296589 *  0.897784 *  0.643397 *   0.00500    1.000000    
    737 C902  c    0.286058 *  0.897784 *  0.617650 *   0.00500    1.000000    
    738 C902  c    0.796589 *  0.397784 *  0.643397 *   0.00500    1.000000    
    739 C902  c    0.070553 *  0.701514 *  0.570624 *   0.00500    1.000000    
    740 C902  c    0.463093 *  0.094054 *  0.570624 *   0.00500    1.000000    
    741 C902  c    0.463093 *  0.701514 *  0.570624 *   0.00500    1.000000    
    742 C902  c    0.070553 *  0.094054 *  0.570624 *   0.00500    1.000000    
    743 C912  c    0.509324 *  0.641594 *  0.698319 *  -0.07025    1.000000    
    744 C912  c    0.056404 *  0.088054 *  0.682525 *  -0.07025    1.000000    
    745 C912  c    0.568784 *  0.707514 *  0.682525 *  -0.07025    1.000000    
    746 C912  c    0.128784 *  0.153974 *  0.698319 *  -0.07025    1.000000    
    747 C912  c    0.568784 *  0.088054 *  0.682525 *  -0.07025    1.000000    
    748 C912  c    0.056404 *  0.707514 *  0.682525 *  -0.07025    1.000000    
    749 C912  c    0.509324 *  0.153974 *  0.698319 *  -0.07025    1.000000    
    750 C912  c    0.128784 *  0.641594 *  0.698319 *  -0.07025    1.000000    
    751 C912  c    0.337701 *  0.963704 *  0.743907 *  -0.07025    1.000000    
    752 C912  c    0.777028 *  0.397784 *  0.756735 *  -0.07025    1.000000    
    753 C912  c    0.337701 *  0.831864 *  0.743907 *  -0.07025    1.000000    
    754 C912  c    0.908869 *  0.397784 *  0.756735 *  -0.07025    1.000000    
    755 C912  c    0.903621 *  0.397784 *  0.743907 *  -0.07025    1.000000    
    756 C912  c    0.342948 *  0.963704 *  0.756735 *  -0.07025    1.000000    
    757 C912  c    0.771781 *  0.397784 *  0.743907 *  -0.07025    1.000000    
    758 C912  c    0.342948 *  0.831864 *  0.756735 *  -0.07025    1.000000    
    759 C912  c    0.562864 *  0.207514 *  0.698319 *  -0.07025    1.000000    
    760 C912  c    0.002864 *  0.653974 *  0.682525 *  -0.07025    1.000000    
    761 C912  c    0.622324 *  0.141594 *  0.682525 *  -0.07025    1.000000    
    762 C912  c    0.075244 *  0.588054 *  0.698319 *  -0.07025    1.000000    
    763 C912  c    0.002864 *  0.141594 *  0.682525 *  -0.07025    1.000000    
    764 C912  c    0.622324 *  0.653974 *  0.682525 *  -0.07025    1.000000    
    765 C912  c    0.075244 *  0.207514 *  0.698319 *  -0.07025    1.000000    
    766 C912  c    0.562864 *  0.588054 *  0.698319 *  -0.07025    1.000000    
    767 C913  c    0.454284 *  0.759324 *  0.690422 *   1.07050    1.000000    
    768 C913  c    0.177364 *  0.036244 *  0.690422 *   1.07050    1.000000    
    769 C913  c    0.454284 *  0.036244 *  0.690422 *   1.07050    1.000000    
    770 C913  c    0.177364 *  0.759324 *  0.690422 *   1.07050    1.000000    
    771 C913  c    0.329394 *  0.897784 *  0.723596 *   1.07050    1.000000    
    772 C914  c    0.851256 *  0.397784 *  0.777046 *   1.07050    1.000000    
    773 C913  c    0.829394 *  0.397784 *  0.723596 *   1.07050    1.000000    
    774 C914  c    0.351256 *  0.897784 *  0.777046 *   1.07050    1.000000    
    775 C913  c    0.677364 *  0.259324 *  0.690422 *   1.07050    1.000000    
    776 C913  c    0.954284 *  0.536244 *  0.690422 *   1.07050    1.000000    
    777 C913  c    0.954284 *  0.259324 *  0.690422 *   1.07050    1.000000    
    778 C913  c    0.677364 *  0.536244 *  0.690422 *   1.07050    1.000000    
    779 C902  c    0.512094 *  0.701514 *  0.690422 *   0.00500    1.000000    
    780 C902  c    0.119554 *  0.094054 *  0.690422 *   0.00500    1.000000    
    781 C902  c    0.512094 *  0.094054 *  0.690422 *   0.00500    1.000000    
    782 C902  c    0.119554 *  0.701514 *  0.690422 *   0.00500    1.000000    
    783 C902  c    0.335059 *  0.897784 *  0.737448 *   0.00500    1.000000    
    784 C902  c    0.845591 *  0.397784 *  0.763195 *   0.00500    1.000000    
    785 C902  c    0.835059 *  0.397784 *  0.737448 *   0.00500    1.000000    
    786 C902  c    0.345591 *  0.897784 *  0.763195 *   0.00500    1.000000    
    787 C902  c    0.619554 *  0.201514 *  0.690422 *   0.00500    1.000000    
    788 C902  c    0.012094 *  0.594054 *  0.690422 *   0.00500    1.000000    
    789 C902  c    0.012094 *  0.201514 *  0.690422 *   0.00500    1.000000    
    790 C902  c    0.619554 *  0.594054 *  0.690422 *   0.00500    1.000000    
    791 H915  c    0.688901 *  0.508584 *  0.380121 *   0.11250    1.000000    
    792 H915  c    0.086941 *  0.897784 *  0.401733 *   0.11250    1.000000    
    793 H915  c    0.688901 *  0.286984 *  0.380121 *   0.11250    1.000000    
    794 H915  c    0.308541 *  0.897784 *  0.401733 *   0.11250    1.000000    
    795 H915  c    0.299701 *  0.897784 *  0.380121 *   0.11250    1.000000    
    796 H915  c    0.697741 *  0.508584 *  0.401733 *   0.11250    1.000000    
    797 H915  c    0.078101 *  0.897784 *  0.380121 *   0.11250    1.000000    
    798 H915  c    0.697741 *  0.286984 *  0.401733 *   0.11250    1.000000    
    799 H915  c    0.372751 *  0.637484 *  0.464100 *   0.11250    1.000000    
    800 H915  c    0.952092 *  0.047284 *  0.437553 *   0.11250    1.000000    
    801 H915  c    0.472692 *  0.748284 *  0.437553 *   0.11250    1.000000    
    802 H915  c    0.073751 *  0.158084 *  0.464100 *   0.11250    1.000000    
    803 H915  c    0.472692 *  0.047284 *  0.437553 *   0.11250    1.000000    
    804 H915  c    0.952092 *  0.748284 *  0.437553 *   0.11250    1.000000    
    805 H915  c    0.372751 *  0.158084 *  0.464100 *   0.11250    1.000000    
    806 H915  c    0.073751 *  0.637484 *  0.464100 *   0.11250    1.000000    
    807 H915  c    0.237902 *  0.008584 *  0.499919 *   0.11250    1.000000    
    808 H915  c    0.635942 *  0.397784 *  0.521531 *   0.11250    1.000000    
    809 H915  c    0.237902 *  0.786984 *  0.499919 *   0.11250    1.000000    
    810 H915  c    0.857542 *  0.397784 *  0.521531 *   0.11250    1.000000    
    811 H915  c    0.848702 *  0.397784 *  0.499919 *   0.11250    1.000000    
    812 H915  c    0.246742 *  0.008584 *  0.521531 *   0.11250    1.000000    
    813 H915  c    0.627102 *  0.397784 *  0.499919 *   0.11250    1.000000    
    814 H915  c    0.246742 *  0.786984 *  0.521531 *   0.11250    1.000000    
    815 H915  c    0.462951 *  0.248284 *  0.464100 *   0.11250    1.000000    
    816 H915  c    0.861892 *  0.658084 *  0.437553 *   0.11250    1.000000    
    817 H915  c    0.562892 *  0.137484 *  0.437553 *   0.11250    1.000000    
    818 H915  c    0.983551 *  0.547284 *  0.464100 *   0.11250    1.000000    
    819 H915  c    0.861892 *  0.137484 *  0.437553 *   0.11250    1.000000    
    820 H915  c    0.562892 *  0.658084 *  0.437553 *   0.11250    1.000000    
    821 H915  c    0.983551 *  0.248284 *  0.464100 *   0.11250    1.000000    
    822 H915  c    0.462951 *  0.547284 *  0.464100 *   0.11250    1.000000    
    823 H915  c    0.921752 *  0.137484 *  0.583898 *   0.11250    1.000000    
    824 H915  c    0.501094 *  0.547284 *  0.557351 *   0.11250    1.000000    
    825 H915  c    0.021694 *  0.248284 *  0.557351 *   0.11250    1.000000    
    826 H915  c    0.622752 *  0.658084 *  0.583898 *   0.11250    1.000000    
    827 H915  c    0.021694 *  0.547284 *  0.557351 *   0.11250    1.000000    
    828 H915  c    0.501094 *  0.248284 *  0.557351 *   0.11250    1.000000    
    829 H915  c    0.921752 *  0.658084 *  0.583898 *   0.11250    1.000000    
    830 H915  c    0.622752 *  0.137484 *  0.583898 *   0.11250    1.000000    
    831 H915  c    0.786904 *  0.508584 *  0.619717 *   0.11250    1.000000    
    832 H915  c    0.184944 *  0.897784 *  0.641329 *   0.11250    1.000000    
    833 H915  c    0.786904 *  0.286984 *  0.619717 *   0.11250    1.000000    
    834 H915  c    0.406544 *  0.897784 *  0.641329 *   0.11250    1.000000    
    835 H915  c    0.397704 *  0.897784 *  0.619717 *   0.11250    1.000000    
    836 H915  c    0.795744 *  0.508584 *  0.641329 *   0.11250    1.000000    
    837 H915  c    0.176104 *  0.897784 *  0.619717 *   0.11250    1.000000    
    838 H915  c    0.795744 *  0.286984 *  0.641329 *   0.11250    1.000000    
    839 H915  c    0.011952 *  0.748284 *  0.583898 *   0.11250    1.000000    
    840 H915  c    0.410894 *  0.158084 *  0.557351 *   0.11250    1.000000    
    841 H915  c    0.111894 *  0.637484 *  0.557351 *   0.11250    1.000000    
    842 H915  c    0.532552 *  0.047284 *  0.583898 *   0.11250    1.000000    
    843 H915  c    0.410894 *  0.637484 *  0.557351 *   0.11250    1.000000    
    844 H915  c    0.111894 *  0.158084 *  0.557351 *   0.11250    1.000000    
    845 H915  c    0.532552 *  0.748284 *  0.583898 *   0.11250    1.000000    
    846 H915  c    0.011952 *  0.047284 *  0.583898 *   0.11250    1.000000    
    847 H915  c    0.470754 *  0.637484 *  0.703696 *   0.11250    1.000000    
    848 H915  c    0.050095 *  0.047284 *  0.677148 *   0.11250    1.000000    
    849 H915  c    0.570695 *  0.748284 *  0.677148 *   0.11250    1.000000    
    850 H915  c    0.171754 *  0.158084 *  0.703696 *   0.11250    1.000000    
    851 H915  c    0.570695 *  0.047284 *  0.677148 *   0.11250    1.000000    
    852 H915  c    0.050095 *  0.748284 *  0.677148 *   0.11250    1.000000    
    853 H915  c    0.470754 *  0.158084 *  0.703696 *   0.11250    1.000000    
    854 H915  c    0.171754 *  0.637484 *  0.703696 *   0.11250    1.000000    
    855 H915  c    0.335905 *  0.008584 *  0.739515 *   0.11250    1.000000    
    856 H915  c    0.733945 *  0.397784 *  0.761127 *   0.11250    1.000000    
    857 H915  c    0.335905 *  0.786984 *  0.739515 *   0.11250    1.000000    
    858 H915  c    0.955545 *  0.397784 *  0.761127 *   0.11250    1.000000    
    859 H915  c    0.946705 *  0.397784 *  0.739515 *   0.11250    1.000000    
    860 H915  c    0.344745 *  0.008584 *  0.761127 *   0.11250    1.000000    
    861 H915  c    0.725105 *  0.397784 *  0.739515 *   0.11250    1.000000    
    862 H915  c    0.344745 *  0.786984 *  0.761127 *   0.11250    1.000000    
    863 H915  c    0.560954 *  0.248284 *  0.703696 *   0.11250    1.000000    
    864 H915  c    0.959895 *  0.658084 *  0.677148 *   0.11250    1.000000    
    865 H915  c    0.660895 *  0.137484 *  0.677148 *   0.11250    1.000000    
    866 H915  c    0.081554 *  0.547284 *  0.703696 *   0.11250    1.000000    
    867 H915  c    0.959895 *  0.137484 *  0.677148 *   0.11250    1.000000    
    868 H915  c    0.660895 *  0.658084 *  0.677148 *   0.11250    1.000000    
    869 H915  c    0.081554 *  0.248284 *  0.703696 *   0.11250    1.000000    
    870 H915  c    0.560954 *  0.547284 *  0.703696 *   0.11250    1.000000    
    871 Zn172 c    0.222082 *  0.810939 *  0.461231 *   2.00000    1.000000    
    872 Zn172 c    0.126721 *  0.897789 *  0.440422 *   2.00000    1.000000    
    873 Zn172 c    0.300411 *  0.897779 *  0.440422 *   2.00000    1.000000    
    874 Zn172 c    0.222072 *  0.984629 *  0.461231 *   2.00000    1.000000    
    875 Zn172 c    0.808922 *  0.397779 *  0.461231 *   2.00000    1.000000    
    876 Zn172 c    0.713561 *  0.484629 *  0.440422 *   2.00000    1.000000    
    877 Zn172 c    0.635232 *  0.397789 *  0.461231 *   2.00000    1.000000    
    878 Zn172 c    0.713571 *  0.310939 *  0.440422 *   2.00000    1.000000    
    879 Zn172 c    0.771084 *  0.310939 *  0.581029 *   2.00000    1.000000    
    880 Zn172 c    0.675722 *  0.397789 *  0.560220 *   2.00000    1.000000    
    881 Zn172 c    0.849412 *  0.397779 *  0.560220 *   2.00000    1.000000    
    882 Zn172 c    0.771074 *  0.484629 *  0.581029 *   2.00000    1.000000    
    883 Zn172 c    0.357924 *  0.897779 *  0.581029 *   2.00000    1.000000    
    884 Zn172 c    0.262562 *  0.984629 *  0.560220 *   2.00000    1.000000    
    885 Zn172 c    0.184234 *  0.897789 *  0.581029 *   2.00000    1.000000    
    886 Zn172 c    0.262572 *  0.810939 *  0.560220 *   2.00000    1.000000    
    887 Zn172 c    0.320085 *  0.810939 *  0.700826 *   2.00000    1.000000    
    888 Zn172 c    0.224723 *  0.897789 *  0.680018 *   2.00000    1.000000    
    889 Zn172 c    0.398414 *  0.897779 *  0.680018 *   2.00000    1.000000    
    890 Zn172 c    0.320075 *  0.984629 *  0.700826 *   2.00000    1.000000    
    891 Zn172 c    0.906925 *  0.397779 *  0.700826 *   2.00000    1.000000    
    892 Zn172 c    0.811564 *  0.484629 *  0.680018 *   2.00000    1.000000    
    893 Zn172 c    0.733235 *  0.397789 *  0.700826 *   2.00000    1.000000    
    894 Zn172 c    0.811574 *  0.310939 *  0.680018 *   2.00000    1.000000    
--------------------------------------------------------------------------------



  Molecule list generated from bond lengths :

  Total number of molecules =    22

--------------------------------------------------------------------------------
Molecule No./:  Atoms
Periodicity  :  
--------------------------------------------------------------------------------
     1  0    : O3   c   185 H22  c   186
     2  0    : O3   c   195 H22  c   196
     3  0    : O176 c   543 O176 c   545 O177 c   548 O177 c   550 C912 c   631
             : C912 c   633 C912 c   636 C912 c   638 C916 c   639 C917 c   642
             : C902 c   643 C902 c   646 H915 c   791 H915 c   793 H915 c   796
             : H915 c   798
     4  0    : O177 c   544 O177 c   546 O176 c   547 O176 c   549 C912 c   632
             : C912 c   634 C912 c   635 C912 c   637 C917 c   640 C916 c   641
             : C902 c   644 C902 c   645 H915 c   792 H915 c   794 H915 c   795
             : H915 c   797
     5  0    : O170 c   553 O170 c   555 O170 c   574 O170 c   576 C912 c   647
             : C912 c   649 C912 c   668 C912 c   670 C913 c   671 C913 c   682
             : C902 c   683 C902 c   694 H915 c   799 H915 c   801 H915 c   820
             : H915 c   822
     6  0    : O170 c   554 O170 c   556 O170 c   573 O170 c   575 C912 c   648
             : C912 c   650 C912 c   667 C912 c   669 C913 c   672 C913 c   681
             : C902 c   684 C902 c   693 H915 c   800 H915 c   802 H915 c   819
             : H915 c   821
     7  0    : O170 c   557 O170 c   559 O170 c   569 O170 c   571 C912 c   651
             : C912 c   653 C912 c   663 C912 c   665 C913 c   673 C913 c   679
             : C902 c   685 C902 c   691 H915 c   803 H915 c   805 H915 c   815
             : H915 c   817
     8  0    : O170 c   558 O170 c   560 O170 c   570 O170 c   572 C912 c   652
             : C912 c   654 C912 c   664 C912 c   666 C913 c   674 C913 c   680
             : C902 c   686 C902 c   692 H915 c   804 H915 c   806 H915 c   816
             : H915 c   818
     9  0    : O170 c   561 O170 c   563 O170 c   566 O170 c   568 C912 c   655
             : C912 c   657 C912 c   660 C912 c   662 C913 c   675 C913 c   678
             : C902 c   687 C902 c   690 H915 c   807 H915 c   809 H915 c   812
             : H915 c   814
    10  0    : O170 c   562 O170 c   564 O170 c   565 O170 c   567 C912 c   656
             : C912 c   658 C912 c   659 C912 c   661 C913 c   676 C913 c   677
             : C902 c   688 C902 c   689 H915 c   808 H915 c   810 H915 c   811
             : H915 c   813
    11  0    : O170 c   579 O170 c   581 O170 c   600 O170 c   602 C912 c   695
             : C912 c   697 C912 c   716 C912 c   718 C913 c   719 C913 c   730
             : C902 c   731 C902 c   742 H915 c   823 H915 c   825 H915 c   844
             : H915 c   846
    12  0    : O170 c   580 O170 c   582 O170 c   599 O170 c   601 C912 c   696
             : C912 c   698 C912 c   715 C912 c   717 C913 c   720 C913 c   729
             : C902 c   732 C902 c   741 H915 c   824 H915 c   826 H915 c   843
             : H915 c   845
    13  0    : O170 c   583 O170 c   585 O170 c   595 O170 c   597 C912 c   699
             : C912 c   701 C912 c   711 C912 c   713 C913 c   721 C913 c   727
             : C902 c   733 C902 c   739 H915 c   827 H915 c   829 H915 c   839
             : H915 c   841
    14  0    : O170 c   584 O170 c   586 O170 c   596 O170 c   598 C912 c   700
             : C912 c   702 C912 c   712 C912 c   714 C913 c   722 C913 c   728
             : C902 c   734 C902 c   740 H915 c   828 H915 c   830 H915 c   840
             : H915 c   842
    15  0    : O170 c   587 O170 c   589 O170 c   592 O170 c   594 C912 c   703
             : C912 c   705 C912 c   708 C912 c   710 C913 c   723 C913 c   726
             : C902 c   735 C902 c   738 H915 c   831 H915 c   833 H915 c   836
             : H915 c   838
    16  0    : O170 c   588 O170 c   590 O170 c   591 O170 c   593 C912 c   704
             : C912 c   706 C912 c   707 C912 c   709 C913 c   724 C913 c   725
             : C902 c   736 C902 c   737 H915 c   832 H915 c   834 H915 c   835
             : H915 c   837
    17  0    : O170 c   605 O170 c   607 O170 c   628 O170 c   630 C912 c   743
             : C912 c   745 C912 c   764 C912 c   766 C913 c   767 C913 c   778
             : C902 c   779 C902 c   790 H915 c   847 H915 c   849 H915 c   868
             : H915 c   870
    18  0    : O170 c   606 O170 c   608 O170 c   627 O170 c   629 C912 c   744
             : C912 c   746 C912 c   763 C912 c   765 C913 c   768 C913 c   777
             : C902 c   780 C902 c   789 H915 c   848 H915 c   850 H915 c   867
             : H915 c   869
    19  0    : O170 c   609 O170 c   611 O170 c   623 O170 c   625 C912 c   747
             : C912 c   749 C912 c   759 C912 c   761 C913 c   769 C913 c   775
             : C902 c   781 C902 c   787 H915 c   851 H915 c   853 H915 c   863
             : H915 c   865
    20  0    : O170 c   610 O170 c   612 O170 c   624 O170 c   626 C912 c   748
             : C912 c   750 C912 c   760 C912 c   762 C913 c   770 C913 c   776
             : C902 c   782 C902 c   788 H915 c   852 H915 c   854 H915 c   864
             : H915 c   866
    21  0    : O170 c   613 O170 c   615 O173 c   619 O172 c   621 H21  c   622
             : C912 c   751 C912 c   753 C912 c   756 C912 c   758 C913 c   771
             : C914 c   774 C902 c   783 C902 c   786 H915 c   855 H915 c   857
             : H915 c   860 H915 c   862
[...]
   640 C917  c    -17.527587          -0.293287   -0.570030   -6.874099
   641 C916  c    -16.560175           0.295895    0.704271    6.138695
   642 C917  c    -17.392501           0.845737    0.348038   -6.972599
   643 C902  c      2.173107           0.389879    0.284221   -4.182084
   644 C902  c      1.202342           0.244517    0.234563    3.692591
   645 C902  c      1.417862          -0.137081   -0.636860   -3.903048
   646 C902  c      1.438928          -0.416366   -0.332631    3.493537
   647 C912  c      1.038597          -1.046662    0.430593    0.537514
   648 C912  c      1.028591           0.269462   -1.180491   -0.460921
   649 C912  c      1.078694          -0.276323    1.178217   -0.521617
   650 C912  c      1.027689           1.084171   -0.409989    0.530469
   651 C912  c      1.051515          -0.283738   -1.176337   -0.524427
   652 C912  c      1.056862           0.265616    1.185838   -0.470110
   653 C912  c      1.015216          -1.037864   -0.440578    0.556361
   654 C912  c      1.044453           1.087977    0.404608    0.505137
   655 C912  c      1.040032           0.004800    0.697224   -1.050555
   656 C912  c      1.055882          -0.720745    0.002299    1.051342
   657 C912  c      1.038140          -0.003686   -0.691958   -1.050207
   658 C912  c      1.056949           0.735782    0.003545    1.047139
   659 C912  c      1.053997           0.717466   -0.001406   -1.052550
   660 C912  c      1.041095           0.002032    0.692704    1.054250
   661 C912  c      1.062466          -0.739608   -0.002531   -1.051018
   662 C912  c      1.041876          -0.005901   -0.696668    1.053434
   663 C912  c      1.054343           0.293733    1.173290    0.528898
   664 C912  c      1.034249          -1.076889   -0.419606   -0.505467
   665 C912  c      1.029040           1.057629    0.449726   -0.555665
   666 C912  c      1.077939          -0.259725   -1.205431    0.472262
   667 C912  c      1.020504          -1.087020    0.424202   -0.519003
   668 C912  c      1.049333           1.048531   -0.444342   -0.548277
   669 C912  c      1.052764          -0.273911    1.192032    0.477739
   670 C912  c      1.083370           0.277539   -1.190701    0.511965
   671 C913  c    -17.535634           4.698740   -5.353069   -0.372876
   672 C913  c    -17.544669          -4.684474    5.340027   -0.300603
   673 C913  c    -17.536700           4.718959    5.317970   -0.408086
   674 C913  c    -17.535665          -4.702062   -5.336504   -0.263805
   675 C913  c    -17.489911           0.001605    0.005546    6.890811
   676 C913  c    -17.488178          -0.033484   -0.020500   -6.988790
   677 C913  c    -17.488648          -0.006712    0.013368    7.003701
   678 C913  c    -17.488296           0.019201    0.008268   -6.905425
   679 C913  c    -17.506906          -4.648154   -5.375418    0.260804
   680 C913  c    -17.509149           4.730463    5.289305    0.365797
   681 C913  c    -17.514649           4.684825   -5.323417    0.333933
   682 C913  c    -17.493073          -4.676149    5.346602    0.348147
   683 C902  c      1.176456          -2.264602    2.724088    0.062190
   684 C902  c      1.156333           2.316040   -2.708102    0.101626
   685 C902  c      1.153645          -2.270777   -2.723220    0.080740
   686 C902  c      1.177888           2.309853    2.710397    0.059249
   687 C902  c      1.244768          -0.002331    0.005459   -3.732746
   688 C902  c      1.214311           0.028467    0.010338    3.628504
   689 C902  c      1.217421          -0.025117   -0.005791   -3.630233
   690 C902  c      1.249361          -0.009714   -0.007488    3.736156
   691 C902  c      1.168654           2.286028    2.723523   -0.050400
   692 C902  c      1.188683          -2.298195   -2.730240   -0.085452
   693 C902  c      1.172053          -2.316577    2.720269   -0.099042
   694 C902  c      1.192644           2.270215   -2.735989   -0.065769
   695 C912  c      1.021271          -1.057545    0.445514    0.473570
   696 C912  c      1.077305           0.251568   -1.187055   -0.556653
   697 C912  c      1.078104          -0.251690    1.186928   -0.564342
   698 C912  c      1.024054           1.062133   -0.443160    0.472902
   699 C912  c      1.078474          -0.251806   -1.187028   -0.564315
   700 C912  c      1.076556           0.250098    1.188386   -0.554939
   701 C912  c      1.021650          -1.058284   -0.445058    0.473084
   702 C912  c      1.023615           1.063529    0.442082    0.470045
   703 C912  c      1.052312          -0.006632    0.700709   -1.051336
   704 C912  c      1.050640          -0.712643    0.000402    1.053469
   705 C912  c      1.052104          -0.007088   -0.700583   -1.051163
   706 C912  c      1.053234           0.729265    0.000022    1.048189
   707 C912  c      1.049585           0.712223   -0.000601   -1.052636
   708 C912  c      1.053838           0.006982    0.700442    1.053585
   709 C912  c      1.053387          -0.729834   -0.000141   -1.047798
   710 C912  c      1.053794           0.006535   -0.700369    1.053730
   711 C912  c      1.077792           0.251772    1.186316    0.564143
   712 C912  c      1.022342          -1.062660   -0.441935   -0.469164
   713 C912  c      1.021998           1.058960    0.444729   -0.472779
   714 C912  c      1.077195          -0.249254   -1.188734    0.555254
   715 C912  c      1.024015          -1.062156    0.443077   -0.472745
   716 C912  c      1.021666           1.058298   -0.445460   -0.473115
   717 C912  c      1.077067          -0.251277    1.186875    0.556507
   718 C912  c      1.077807           0.251812   -1.186532    0.564296
   719 C913  c    -17.522974           4.760171   -5.286753   -0.088712
   720 C913  c    -17.521406          -4.752691    5.290158   -0.085881
   721 C913  c    -17.522202           4.762621    5.284470   -0.086534
   722 C913  c    -17.521776          -4.753094   -5.288910   -0.079145
   723 C913  c    -17.486041           0.047700    0.000990    6.928658
   724 C913  c    -17.492772          -0.028040   -0.002435   -6.976005
   725 C913  c    -17.487992           0.023283    0.001742    6.964117
   726 C913  c    -17.471687          -0.043825   -0.000563   -6.912593
   727 C913  c    -17.523163          -4.758524   -5.290368    0.083698
   728 C913  c    -17.523518           4.756083    5.289030    0.090554
   729 C913  c    -17.522502           4.751402   -5.293521    0.089451
   730 C913  c    -17.522837          -4.756920    5.291051    0.086655
   731 C902  c      1.174504          -2.256474    2.747666   -0.119590
   732 C902  c      1.176843           2.263054   -2.746424   -0.110516
   733 C902  c      1.174814          -2.257475   -2.746528   -0.120206
   734 C902  c      1.176615           2.263024    2.747325   -0.113672
   735 C902  c      1.249890          -0.024508   -0.000023   -3.715061
   736 C902  c      1.220604           0.026370    0.001115    3.651240
   737 C902  c      1.219715          -0.026389   -0.000895   -3.650427
   738 C902  c      1.253794           0.022586    0.000111    3.718759
   739 C902  c      1.174557           2.257257    2.746609    0.119968
   740 C902  c      1.176094          -2.261522   -2.748269    0.110466
   741 C902  c      1.176586          -2.262151    2.746959    0.108622
   742 C902  c      1.174733           2.256675   -2.747897    0.119435
   743 C912  c      1.032619          -1.063951    0.432992    0.516259
   744 C912  c      1.069656           0.269142   -1.186509   -0.512181
   745 C912  c      1.071528          -0.269031    1.186970   -0.514216
   746 C912  c      1.031356           1.064460   -0.432420    0.515868
   747 C912  c      1.068156          -0.269775   -1.186660   -0.516997
   748 C912  c      1.073146           0.269240    1.186040   -0.510595
   749 C912  c      1.025808          -1.063518   -0.433838    0.513929
   750 C912  c      1.038748           1.064206    0.432242    0.519462
   751 C912  c      1.202543          -0.004551    0.643715   -0.960972
   752 C912  c      1.410921          -0.523324    0.017338    1.284472
   753 C912  c      1.254941          -0.002441   -0.683694   -0.923890
   754 C912  c      1.543765           0.615331    0.016073    1.378833
   755 C912  c      1.251029           0.681007   -0.005812   -0.920572
   756 C912  c      1.409019          -0.002118    0.525065    1.282029
   757 C912  c      1.201054          -0.646516   -0.003607   -0.956210
   758 C912  c      1.543516          -0.000255   -0.613455    1.378273
   759 C912  c      1.062120           0.271643    1.186932    0.509647
   760 C912  c      1.039434          -1.065222   -0.432140   -0.518791
   761 C912  c      1.032850           1.064703    0.432781   -0.520483
   762 C912  c      1.073579          -0.270442   -1.186426    0.510800
   763 C912  c      1.035841          -1.065693    0.432264   -0.519550
   764 C912  c      1.036463           1.065288   -0.431919   -0.518871
   765 C912  c      1.067036          -0.270910    1.187484    0.508447
   766 C912  c      1.067988           0.270485   -1.186346    0.510423
   767 C913  c    -17.516932           4.710453   -5.319915   -0.272836
   768 C913  c    -17.517753          -4.703653    5.324573   -0.270326
   769 C913  c    -17.519350           4.711161    5.318693   -0.268300
   770 C913  c    -17.514967          -4.701927   -5.326963   -0.273042
   771 C913  c    -17.436417           0.014701    0.011586    6.975417
   772 C914  c    -14.313516           0.580896   -0.050342   -4.515609
   773 C913  c    -17.448586          -0.006018    0.054035    6.965792
   774 C914  c    -14.316328          -0.000028   -0.590208   -4.515073
   775 C913  c    -17.517540          -4.708352   -5.323229    0.276910
   776 C913  c    -17.513387           4.704476    5.327363    0.281193
   777 C913  c    -17.514953           4.704777   -5.325247    0.280558
   778 C913  c    -17.516259          -4.707282    5.325765    0.275432
   779 C902  c      1.179179          -2.285312    2.730969    0.026523
   780 C902  c      1.178354           2.286642   -2.731750    0.028836
   781 C902  c      1.174743          -2.285939   -2.731362    0.022250
   782 C902  c      1.183038           2.285828    2.731199    0.032423
   783 C902  c      1.369427          -0.008871   -0.021617   -3.600880
   784 C902  c      2.107625           0.092531    0.051945    4.377964
   785 C902  c      1.363181           0.014359   -0.024723   -3.594690
   786 C902  c      2.105625          -0.001758   -0.084891    4.377416
   787 C902  c      1.176015           2.285692    2.732864   -0.031156
   788 C902  c      1.184285          -2.286483   -2.731743   -0.034326
   789 C902  c      1.180112          -2.287072    2.732827   -0.035105
   790 C902  c      1.179960           2.285550   -2.731724   -0.030566
   791 H915  c     -1.538371          -0.054871    0.273015    0.178774
   792 H915  c     -2.010526          -0.552596   -0.048322   -0.243963
   793 H915  c     -0.679466           0.020965   -0.527531   -0.616304
   794 H915  c     -1.898725           0.525455   -0.108697   -0.305517
   795 H915  c     -1.646991           0.629431   -0.216577    0.027373
   796 H915  c     -1.814479           0.040764    0.515173   -0.327862
   797 H915  c     -1.836078          -0.513261   -0.100637    0.069779
   798 H915  c     -1.561130           0.028029   -0.485211   -0.381637
   799 H915  c     -1.913389          -0.109476   -0.479417    0.375358
   800 H915  c     -1.886611          -0.412925   -0.114471   -0.342354
   801 H915  c     -1.809829           0.369997    0.113103   -0.375444
   802 H915  c     -1.902083           0.136168    0.462309    0.356340
   803 H915  c     -1.835132           0.360206   -0.124189   -0.366452
   804 H915  c     -1.852191          -0.408616    0.114703   -0.344819
   805 H915  c     -1.933761          -0.101228    0.473086    0.388554
   806 H915  c     -1.894244           0.136622   -0.475599    0.348782
   807 H915  c     -1.922804           0.004801    0.543656    0.274218
   808 H915  c     -1.881993          -0.539058   -0.001110   -0.238995
   809 H915  c     -1.928233          -0.002190   -0.547385    0.280664
   810 H915  c     -1.877532           0.532488   -0.000209   -0.237742
   811 H915  c     -1.887073           0.540234    0.000580    0.244855
   812 H915  c     -1.922112           0.004195    0.546571   -0.274885
   813 H915  c     -1.865598          -0.532249    0.000018    0.227978
   814 H915  c     -1.920337          -0.001775   -0.545181   -0.275077
   815 H915  c     -1.835653          -0.380860    0.110654    0.381306
   816 H915  c     -1.915748          -0.126893    0.479543   -0.350684
   817 H915  c     -1.900346           0.128326   -0.426606   -0.377316
   818 H915  c     -1.809242           0.395908   -0.138225    0.347385
   819 H915  c     -1.914191          -0.141729   -0.449297   -0.344172
   820 H915  c     -1.894259           0.112856    0.458609   -0.382273
   821 H915  c     -1.842943           0.405397    0.123326    0.362100
   822 H915  c     -1.799909          -0.373802   -0.127830    0.366069
   823 H915  c     -1.942736          -0.116198   -0.495114    0.392838
   824 H915  c     -1.795366          -0.376844   -0.130976   -0.351308
   825 H915  c     -1.791076           0.371401    0.132870   -0.352597
   826 H915  c     -1.937454           0.119738    0.492434    0.388089
   827 H915  c     -1.790578           0.371478   -0.133193   -0.352396
   828 H915  c     -1.796196          -0.377965    0.131808   -0.349518
   829 H915  c     -1.942108          -0.116486    0.494867    0.392527
   830 H915  c     -1.938075           0.120775   -0.493642    0.387138
   831 H915  c     -1.906654           0.002338    0.543728    0.270169
   832 H915  c     -1.893523          -0.540772   -0.000131   -0.247358
   833 H915  c     -1.907092           0.001975   -0.543764    0.270536
   834 H915  c     -1.886138           0.534655   -0.000396   -0.244703
   835 H915  c     -1.895297           0.540571   -0.000271    0.247688
   836 H915  c     -1.904156          -0.001410    0.543089   -0.267205
   837 H915  c     -1.885477          -0.534344    0.000131    0.243256
   838 H915  c     -1.904153          -0.001760   -0.542934   -0.266905
   839 H915  c     -1.792076          -0.372360    0.131777    0.352839
   840 H915  c     -1.940991          -0.119607    0.495876   -0.386389
   841 H915  c     -1.941399           0.117204   -0.494006   -0.391419
   842 H915  c     -1.794759           0.376926   -0.132118    0.350259
   843 H915  c     -1.937752          -0.119586   -0.492621   -0.387550
   844 H915  c     -1.942042           0.116956    0.494265   -0.391661
   845 H915  c     -1.795775           0.376758    0.130347    0.351840
   846 H915  c     -1.791854          -0.371923   -0.131876    0.353032
   847 H915  c     -1.914970          -0.122688   -0.470752    0.370441
   848 H915  c     -1.817994          -0.388213   -0.122802   -0.362124
   849 H915  c     -1.814775           0.385849    0.124128   -0.361626
   850 H915  c     -1.916729           0.122978    0.468859    0.367182
   851 H915  c     -1.817106           0.385431   -0.124200   -0.362828
   852 H915  c     -1.815675          -0.388158    0.122113   -0.361613
   853 H915  c     -1.923634          -0.122765    0.468873    0.367269
   854 H915  c     -1.907200           0.122520   -0.469826    0.371296
   855 H915  c     -1.836136          -0.001838    0.489220    0.292663
   856 H915  c     -1.669651          -0.247791    0.002592   -0.164089
   857 H915  c     -1.781901          -0.000339   -0.503603    0.333845
   858 H915  c     -1.394558           0.268640    0.003991    0.040111
   859 H915  c     -1.789108           0.504724    0.004452    0.338293
   860 H915  c     -1.672955          -0.003256    0.246711   -0.165802
   861 H915  c     -1.838546          -0.489248    0.005942    0.296122
   862 H915  c     -1.395038          -0.002632   -0.269124    0.039277
   863 H915  c     -1.827739          -0.380490    0.125030    0.355420
   864 H915  c     -1.906314          -0.123067    0.472421   -0.370935
   865 H915  c     -1.911885           0.122631   -0.473031   -0.374136
   866 H915  c     -1.815126           0.384055   -0.122109    0.361937
   867 H915  c     -1.909080          -0.123420   -0.472470   -0.371774
   868 H915  c     -1.908737           0.123124    0.473054   -0.372523
   869 H915  c     -1.822086           0.382912    0.124498    0.358671
   870 H915  c     -1.821879          -0.382724   -0.122774    0.357809
   871 Zn172 c    -20.936736          -0.011044   -0.344996    0.008331
   872 Zn172 c    -20.800449          -0.505583    0.003523    0.268129
   873 Zn172 c    -20.663925           0.551836    0.057620    0.141724
   874 Zn172 c    -20.924393          -0.025609    0.366487    0.019287
   875 Zn172 c    -20.650989           0.402865    0.023453   -0.072211
   876 Zn172 c    -20.887845          -0.084637    0.357496   -0.149799
   877 Zn172 c    -20.614947          -0.474805    0.011902   -0.013262
   878 Zn172 c    -20.754072          -0.059834   -0.167613   -0.261113
   879 Zn172 c    -20.978309          -0.006476   -0.241116    0.081554
   880 Zn172 c    -20.587891          -0.515364    0.002017    0.080704
   881 Zn172 c    -20.565234           0.525090    0.002310    0.063670
   882 Zn172 c    -20.976988          -0.007598    0.243963    0.082131
   883 Zn172 c    -20.601940           0.536829    0.001269   -0.124099
   884 Zn172 c    -20.995301          -0.003830    0.265745   -0.046311
   885 Zn172 c    -20.582787          -0.542437    0.000035   -0.104534
   886 Zn172 c    -20.990085           0.002076   -0.266883   -0.050663
   887 Zn172 c    -20.889945          -0.003886   -0.271096    0.126404
   888 Zn172 c    -20.654410          -0.478600    0.000835    0.099685
   889 Zn172 c    -20.638792           0.472789    0.001462    0.084781
   890 Zn172 c    -20.896545          -0.002686    0.278106    0.115950
   891 Zn172 c    -20.666495           0.504983   -0.002769   -0.141096
   892 Zn172 c    -20.913101           0.003462    0.307108   -0.055568
   893 Zn172 c    -20.664824          -0.513693   -0.005191   -0.147937
   894 Zn172 c    -20.914043           0.003879   -0.306437   -0.057035
-------------------------------------------------------------------------------

  Total time to end of lattice properties =   12863.5681 s


  Peak dynamic memory used =     148.21 MB 


  Timing analysis for GULP :

--------------------------------------------------------------------------------
  Task / Subroutine                                          Time (Seconds)
--------------------------------------------------------------------------------
  Calculation of reciprocal space energy and derivatives       2908.7222
  Calculation of real space energy and derivatives             8530.2075
  Calculation of three-body energy and derivatives               26.9625
  Calculation of four-body energy and derivatives                29.2484
  Calculation of molecules and connectivity                       0.9724
  Calculation of phonons                                         51.8754
  Calculation of scattering                                       0.0000
  Calculation of matrix inversion                              1277.2896
  Symmetry generation of equivalent positions                     0.0128
  Global summation overhead                                       0.0264
--------------------------------------------------------------------------------
  Total CPU time                                              12863.5682
--------------------------------------------------------------------------------


  Dump file written as fit1.res                                                


  Job Finished at 21:37.40 16th May        2016                               

