********************************************************************************
*                       GENERAL UTILITY LATTICE PROGRAM                        *
*                                 Julian Gale                                  *
*                      Nanochemistry Research Institute                        *
*                           Department of Chemistry                            *
*                    Curtin University, Western Australia                      *
********************************************************************************
* Version = 4.4.0 * Last modified = 31st March 2015                            *
********************************************************************************
*  optimise     - perform optimisation run                                     *
*  conv         - constant volume calculation                                  *
*  property     - calculate properties for final geometry                      *
*  phonon       - calculate phonons for final geometry                         *
*  potential    - calculate electrostatic site potentials                      *
*  molmec       - molecule option activated, Coulomb subtract 1-2/1-3 terms    *
*  fix_molecule - fix atoms of molecule as at the start of the run             *
*  compare      - compare initial and final structures                         *
********************************************************************************

  Job Started  at 17:50.49 24th May        2016                               

  Number of CPUs =     1


  Total number of configurations input =   1

********************************************************************************
*  Input for Configuration =   1                                               *
********************************************************************************

  Formula = Ti180O360                                                   

  Number of irreducible atoms/shells =     540


  Total number atoms/shells =     540

  Dimensionality = 3               :  Bulk   



  Cartesian lattice vectors (Angstroms) :

       17.724000    0.000000    0.000000
        0.000000   19.461000    0.000000
        0.000000    0.000000   48.346000

  Cell parameters (Angstroms/Degrees):

  a =      17.7240    alpha =  90.0000
  b =      19.4610    beta  =  90.0000
  c =      48.3460    gamma =  90.0000

  Initial cell volume =       16675.829332 Angs**3

  Temperature of configuration =  0.000     K 

  Pressure of configuration =         0.000 GPa 

  Fractional coordinates of asymmetric unit :

--------------------------------------------------------------------------------
   No.  Atomic       x           y          z         Charge      Occupancy
        Label      (Frac)      (Frac)     (Frac)        (e)         (Frac)  
--------------------------------------------------------------------------------
      1 Ti    c    0.000000    0.333333    0.000000     2.43600    1.000000    
      2 Ti    c    0.833333 *  0.000000 *  0.000000 *   2.43600    1.000000    
      3 Ti    c    0.666667 *  0.000000 *  0.000000 *   2.43600    1.000000    
      4 Ti    c    0.500000 *  0.000000 *  0.000000 *   2.43600    1.000000    
      5 Ti    c    0.333333 *  0.000000 *  0.000000 *   2.43600    1.000000    
      6 Ti    c    0.166667 *  0.000000 *  0.000000 *   2.43600    1.000000    
      7 Ti    c    0.000000 *  0.000000 *  0.000000 *   2.43600    1.000000    
      8 Ti    c    0.833333 *  0.666667 *  0.000000 *   2.43600    1.000000    
      9 Ti    c    0.666667 *  0.666667 *  0.000000 *   2.43600    1.000000    
     10 Ti    c    0.500000 *  0.666667 *  0.000000 *   2.43600    1.000000    
     11 Ti    c    0.333333 *  0.666667 *  0.000000 *   2.43600    1.000000    
     12 Ti    c    0.166667 *  0.666667 *  0.000000 *   2.43600    1.000000    
     13 Ti    c    0.000000 *  0.666667 *  0.000000 *   2.43600    1.000000    
     14 Ti    c    0.833333 *  0.333333 *  0.000000 *   2.43600    1.000000    
     15 Ti    c    0.666667 *  0.333333 *  0.000000 *   2.43600    1.000000    
     16 Ti    c    0.500000 *  0.333333 *  0.000000 *   2.43600    1.000000    
     17 Ti    c    0.333333 *  0.333333 *  0.000000 *   2.43600    1.000000    
     18 Ti    c    0.166667 *  0.333333 *  0.000000 *   2.43600    1.000000    
     19 Ti    c    0.750000 *  0.833333 *  0.994911 *   2.43600    1.000000    
     20 Ti    c    0.583333 *  0.833333 *  0.994911 *   2.43600    1.000000    
     21 Ti    c    0.416667 *  0.833333 *  0.994911 *   2.43600    1.000000    
     22 Ti    c    0.583333 *  0.500000 *  0.994911 *   2.43600    1.000000    
     23 Ti    c    0.250000 *  0.500000 *  0.994911 *   2.43600    1.000000    
     24 Ti    c    0.083333 *  0.500000 *  0.994911 *   2.43600    1.000000    
     25 Ti    c    0.583333 *  0.166667 *  0.994911 *   2.43600    1.000000    
     26 Ti    c    0.250000 *  0.166667 *  0.994911 *   2.43600    1.000000    
     27 Ti    c    0.083333 *  0.166667 *  0.994911 *   2.43600    1.000000    
     28 Ti    c    0.916667 *  0.833333 *  0.994911 *   2.43600    1.000000    
     29 Ti    c    0.250000 *  0.833333 *  0.994911 *   2.43600    1.000000    
     30 Ti    c    0.083333 *  0.833333 *  0.994911 *   2.43600    1.000000    
     31 Ti    c    0.916667 *  0.500000 *  0.994911 *   2.43600    1.000000    
     32 Ti    c    0.750000 *  0.500000 *  0.994911 *   2.43600    1.000000    
     33 Ti    c    0.416667 *  0.500000 *  0.994911 *   2.43600    1.000000    
     34 Ti    c    0.916667 *  0.166667 *  0.994911 *   2.43600    1.000000    
     35 Ti    c    0.750000 *  0.166667 *  0.994911 *   2.43600    1.000000    
     36 Ti    c    0.416667 *  0.166667 *  0.994911 *   2.43600    1.000000    
     37 Ti    c    0.000000 *  0.166667 *  0.930361 *   2.43600    1.000000    
     38 Ti    c    0.833333 *  0.833333 *  0.930361 *   2.43600    1.000000    
     39 Ti    c    0.666667 *  0.833333 *  0.930361 *   2.43600    1.000000    
     40 Ti    c    0.500000 *  0.833333 *  0.930361 *   2.43600    1.000000    
     41 Ti    c    0.333333 *  0.833333 *  0.930361 *   2.43600    1.000000    
     42 Ti    c    0.166667 *  0.833333 *  0.930361 *   2.43600    1.000000    
     43 Ti    c    0.000000 *  0.833333 *  0.930361 *   2.43600    1.000000    
     44 Ti    c    0.833333 *  0.500000 *  0.930361 *   2.43600    1.000000    
     45 Ti    c    0.666667 *  0.500000 *  0.930361 *   2.43600    1.000000    
     46 Ti    c    0.500000 *  0.500000 *  0.930361 *   2.43600    1.000000    
     47 Ti    c    0.333333 *  0.500000 *  0.930361 *   2.43600    1.000000    
     48 Ti    c    0.166667 *  0.500000 *  0.930361 *   2.43600    1.000000    
     49 Ti    c    0.000000 *  0.500000 *  0.930361 *   2.43600    1.000000    
     50 Ti    c    0.833333 *  0.166667 *  0.930361 *   2.43600    1.000000    
     51 Ti    c    0.666667 *  0.166667 *  0.930361 *   2.43600    1.000000    
     52 Ti    c    0.500000 *  0.166667 *  0.930361 *   2.43600    1.000000    
     53 Ti    c    0.333333 *  0.166667 *  0.930361 *   2.43600    1.000000    
     54 Ti    c    0.166667 *  0.166667 *  0.930361 *   2.43600    1.000000    
     55 Ti    c    0.083333 *  0.333333 *  0.932186 *   2.43600    1.000000    
     56 Ti    c    0.916667 *  0.000000 *  0.932186 *   2.43600    1.000000    
     57 Ti    c    0.750000 *  0.000000 *  0.932186 *   2.43600    1.000000    
     58 Ti    c    0.583333 *  0.000000 *  0.932186 *   2.43600    1.000000    
     59 Ti    c    0.416667 *  0.000000 *  0.932186 *   2.43600    1.000000    
     60 Ti    c    0.250000 *  0.000000 *  0.932186 *   2.43600    1.000000    
     61 Ti    c    0.083333 *  0.000000 *  0.932186 *   2.43600    1.000000    
     62 Ti    c    0.916667 *  0.666667 *  0.932186 *   2.43600    1.000000    
     63 Ti    c    0.750000 *  0.666667 *  0.932186 *   2.43600    1.000000    
     64 Ti    c    0.583333 *  0.666667 *  0.932186 *   2.43600    1.000000    
     65 Ti    c    0.416667 *  0.666667 *  0.932186 *   2.43600    1.000000    
     66 Ti    c    0.250000 *  0.666667 *  0.932186 *   2.43600    1.000000    
     67 Ti    c    0.083333 *  0.666667 *  0.932186 *   2.43600    1.000000    
     68 Ti    c    0.916667 *  0.333333 *  0.932186 *   2.43600    1.000000    
     69 Ti    c    0.750000 *  0.333333 *  0.932186 *   2.43600    1.000000    
     70 Ti    c    0.583333 *  0.333333 *  0.932186 *   2.43600    1.000000    
     71 Ti    c    0.416667 *  0.333333 *  0.932186 *   2.43600    1.000000    
     72 Ti    c    0.250000 *  0.333333 *  0.932186 *   2.43600    1.000000    
     73 Ti    c    0.000000 *  0.333333 *  0.866092 *   2.43600    1.000000    
     74 Ti    c    0.833333 *  0.000000 *  0.866092 *   2.43600    1.000000    
     75 Ti    c    0.666667 *  0.000000 *  0.866092 *   2.43600    1.000000    
     76 Ti    c    0.500000 *  0.000000 *  0.866092 *   2.43600    1.000000    
     77 Ti    c    0.333333 *  0.000000 *  0.866092 *   2.43600    1.000000    
     78 Ti    c    0.166667 *  0.000000 *  0.866092 *   2.43600    1.000000    
     79 Ti    c    0.000000 *  0.000000 *  0.866092 *   2.43600    1.000000    
     80 Ti    c    0.833333 *  0.666667 *  0.866092 *   2.43600    1.000000    
     81 Ti    c    0.666667 *  0.666667 *  0.866092 *   2.43600    1.000000    
     82 Ti    c    0.500000 *  0.666667 *  0.866092 *   2.43600    1.000000    
     83 Ti    c    0.333333 *  0.666667 *  0.866092 *   2.43600    1.000000    
     84 Ti    c    0.166667 *  0.666667 *  0.866092 *   2.43600    1.000000    
     85 Ti    c    0.000000 *  0.666667 *  0.866092 *   2.43600    1.000000    
     86 Ti    c    0.833333 *  0.333333 *  0.866092 *   2.43600    1.000000    
     87 Ti    c    0.666667 *  0.333333 *  0.866092 *   2.43600    1.000000    
     88 Ti    c    0.500000 *  0.333333 *  0.866092 *   2.43600    1.000000    
     89 Ti    c    0.333333 *  0.333333 *  0.866092 *   2.43600    1.000000    
     90 Ti    c    0.166667 *  0.333333 *  0.866092 *   2.43600    1.000000    
     91 Ti    c    0.083333 *  0.166667 *  0.866092 *   2.43600    1.000000    
     92 Ti    c    0.916667 *  0.833333 *  0.866092 *   2.43600    1.000000    
     93 Ti    c    0.750000 *  0.833333 *  0.866092 *   2.43600    1.000000    
     94 Ti    c    0.583333 *  0.833333 *  0.866092 *   2.43600    1.000000    
     95 Ti    c    0.416667 *  0.833333 *  0.866092 *   2.43600    1.000000    
     96 Ti    c    0.250000 *  0.833333 *  0.866092 *   2.43600    1.000000    
     97 Ti    c    0.083333 *  0.833333 *  0.866092 *   2.43600    1.000000    
     98 Ti    c    0.916667 *  0.500000 *  0.866092 *   2.43600    1.000000    
     99 Ti    c    0.750000 *  0.500000 *  0.866092 *   2.43600    1.000000    
    100 Ti    c    0.583333 *  0.500000 *  0.866092 *   2.43600    1.000000    
    101 Ti    c    0.416667 *  0.500000 *  0.866092 *   2.43600    1.000000    
    102 Ti    c    0.250000 *  0.500000 *  0.866092 *   2.43600    1.000000    
    103 Ti    c    0.083333 *  0.500000 *  0.866092 *   2.43600    1.000000    
    104 Ti    c    0.916667 *  0.166667 *  0.866092 *   2.43600    1.000000    
    105 Ti    c    0.750000 *  0.166667 *  0.866092 *   2.43600    1.000000    
    106 Ti    c    0.583333 *  0.166667 *  0.866092 *   2.43600    1.000000    
    107 Ti    c    0.416667 *  0.166667 *  0.866092 *   2.43600    1.000000    
    108 Ti    c    0.250000 *  0.166667 *  0.866092 *   2.43600    1.000000    
    109 Ti    c    0.000000 *  0.166667 *  0.801824 *   2.43600    1.000000    
    110 Ti    c    0.833333 *  0.833333 *  0.801824 *   2.43600    1.000000    
    111 Ti    c    0.666667 *  0.833333 *  0.801824 *   2.43600    1.000000    
    112 Ti    c    0.500000 *  0.833333 *  0.801824 *   2.43600    1.000000    
    113 Ti    c    0.333333 *  0.833333 *  0.801824 *   2.43600    1.000000    
    114 Ti    c    0.166667 *  0.833333 *  0.801824 *   2.43600    1.000000    
    115 Ti    c    0.000000 *  0.833333 *  0.801824 *   2.43600    1.000000    
    116 Ti    c    0.833333 *  0.500000 *  0.801824 *   2.43600    1.000000    
    117 Ti    c    0.666667 *  0.500000 *  0.801824 *   2.43600    1.000000    
    118 Ti    c    0.500000 *  0.500000 *  0.801824 *   2.43600    1.000000    
    119 Ti    c    0.333333 *  0.500000 *  0.801824 *   2.43600    1.000000    
    120 Ti    c    0.166667 *  0.500000 *  0.801824 *   2.43600    1.000000    
    121 Ti    c    0.000000 *  0.500000 *  0.801824 *   2.43600    1.000000    
    122 Ti    c    0.833333 *  0.166667 *  0.801824 *   2.43600    1.000000    
    123 Ti    c    0.666667 *  0.166667 *  0.801824 *   2.43600    1.000000    
    124 Ti    c    0.500000 *  0.166667 *  0.801824 *   2.43600    1.000000    
    125 Ti    c    0.333333 *  0.166667 *  0.801824 *   2.43600    1.000000    
    126 Ti    c    0.166667 *  0.166667 *  0.801824 *   2.43600    1.000000    
    127 Ti    c    0.083333 *  0.333333 *  0.799999 *   2.43600    1.000000    
    128 Ti    c    0.916667 *  0.000000 *  0.799999 *   2.43600    1.000000    
    129 Ti    c    0.750000 *  0.000000 *  0.799999 *   2.43600    1.000000    
    130 Ti    c    0.583333 *  0.000000 *  0.799999 *   2.43600    1.000000    
    131 Ti    c    0.416667 *  0.000000 *  0.799999 *   2.43600    1.000000    
    132 Ti    c    0.250000 *  0.000000 *  0.799999 *   2.43600    1.000000    
    133 Ti    c    0.083333 *  0.000000 *  0.799999 *   2.43600    1.000000    
    134 Ti    c    0.916667 *  0.666667 *  0.799999 *   2.43600    1.000000    
    135 Ti    c    0.750000 *  0.666667 *  0.799999 *   2.43600    1.000000    
    136 Ti    c    0.583333 *  0.666667 *  0.799999 *   2.43600    1.000000    
    137 Ti    c    0.416667 *  0.666667 *  0.799999 *   2.43600    1.000000    
    138 Ti    c    0.250000 *  0.666667 *  0.799999 *   2.43600    1.000000    
    139 Ti    c    0.083333 *  0.666667 *  0.799999 *   2.43600    1.000000    
    140 Ti    c    0.916667 *  0.333333 *  0.799999 *   2.43600    1.000000    
    141 Ti    c    0.750000 *  0.333333 *  0.799999 *   2.43600    1.000000    
    142 Ti    c    0.583333 *  0.333333 *  0.799999 *   2.43600    1.000000    
    143 Ti    c    0.416667 *  0.333333 *  0.799999 *   2.43600    1.000000    
    144 Ti    c    0.250000 *  0.333333 *  0.799999 *   2.43600    1.000000    
    145 Ti    c    0.083333 *  0.166667 *  0.737273 *   2.43600    1.000000    
    146 Ti    c    0.000000 *  0.333333 *  0.732185 *   2.43600    1.000000    
    147 Ti    c    0.916667 *  0.833333 *  0.737273 *   2.43600    1.000000    
    148 Ti    c    0.833333 *  0.000000 *  0.732185 *   2.43600    1.000000    
    149 Ti    c    0.750000 *  0.833333 *  0.737273 *   2.43600    1.000000    
    150 Ti    c    0.666667 *  0.000000 *  0.732185 *   2.43600    1.000000    
    151 Ti    c    0.583333 *  0.833333 *  0.737273 *   2.43600    1.000000    
    152 Ti    c    0.500000 *  0.000000 *  0.732185 *   2.43600    1.000000    
    153 Ti    c    0.416667 *  0.833333 *  0.737273 *   2.43600    1.000000    
    154 Ti    c    0.333333 *  0.000000 *  0.732185 *   2.43600    1.000000    
    155 Ti    c    0.250000 *  0.833333 *  0.737273 *   2.43600    1.000000    
    156 Ti    c    0.166667 *  0.000000 *  0.732185 *   2.43600    1.000000    
    157 Ti    c    0.083333 *  0.833333 *  0.737273 *   2.43600    1.000000    
    158 Ti    c    0.000000 *  0.000000 *  0.732185 *   2.43600    1.000000    
    159 Ti    c    0.916667 *  0.500000 *  0.737273 *   2.43600    1.000000    
    160 Ti    c    0.833333 *  0.666667 *  0.732185 *   2.43600    1.000000    
    161 Ti    c    0.750000 *  0.500000 *  0.737273 *   2.43600    1.000000    
    162 Ti    c    0.666667 *  0.666667 *  0.732185 *   2.43600    1.000000    
    163 Ti    c    0.583333 *  0.500000 *  0.737273 *   2.43600    1.000000    
    164 Ti    c    0.500000 *  0.666667 *  0.732185 *   2.43600    1.000000    
    165 Ti    c    0.416667 *  0.500000 *  0.737273 *   2.43600    1.000000    
    166 Ti    c    0.333333 *  0.666667 *  0.732185 *   2.43600    1.000000    
    167 Ti    c    0.250000 *  0.500000 *  0.737273 *   2.43600    1.000000    
    168 Ti    c    0.166667 *  0.666667 *  0.732185 *   2.43600    1.000000    
    169 Ti    c    0.083333 *  0.500000 *  0.737273 *   2.43600    1.000000    
    170 Ti    c    0.000000 *  0.666667 *  0.732185 *   2.43600    1.000000    
    171 Ti    c    0.916667 *  0.166667 *  0.737273 *   2.43600    1.000000    
    172 Ti    c    0.833333 *  0.333333 *  0.732185 *   2.43600    1.000000    
    173 Ti    c    0.750000 *  0.166667 *  0.737273 *   2.43600    1.000000    
    174 Ti    c    0.666667 *  0.333333 *  0.732185 *   2.43600    1.000000    
    175 Ti    c    0.583333 *  0.166667 *  0.737273 *   2.43600    1.000000    
    176 Ti    c    0.500000 *  0.333333 *  0.732185 *   2.43600    1.000000    
    177 Ti    c    0.416667 *  0.166667 *  0.737273 *   2.43600    1.000000    
    178 Ti    c    0.333333 *  0.333333 *  0.732185 *   2.43600    1.000000    
    179 Ti    c    0.250000 *  0.166667 *  0.737273 *   2.43600    1.000000    
    180 Ti    c    0.166667 *  0.333333 *  0.732185 *   2.43600    1.000000    
    181 O2    c    0.083333 *  0.333333 *  0.020728 *  -1.21800    1.000000    
    182 O2    c    0.916667 *  0.000000 *  0.020728 *  -1.21800    1.000000    
    183 O2    c    0.750000 *  0.000000 *  0.020728 *  -1.21800    1.000000    
    184 O2    c    0.583333 *  0.000000 *  0.020728 *  -1.21800    1.000000    
    185 O2    c    0.416667 *  0.000000 *  0.020728 *  -1.21800    1.000000    
    186 O2    c    0.250000 *  0.000000 *  0.020728 *  -1.21800    1.000000    
    187 O2    c    0.083333 *  0.000000 *  0.020728 *  -1.21800    1.000000    
    188 O2    c    0.916667 *  0.666667 *  0.020728 *  -1.21800    1.000000    
    189 O2    c    0.750000 *  0.666667 *  0.020728 *  -1.21800    1.000000    
    190 O2    c    0.583333 *  0.666667 *  0.020728 *  -1.21800    1.000000    
    191 O2    c    0.416667 *  0.666667 *  0.020728 *  -1.21800    1.000000    
    192 O2    c    0.250000 *  0.666667 *  0.020728 *  -1.21800    1.000000    
    193 O2    c    0.083333 *  0.666667 *  0.020728 *  -1.21800    1.000000    
    194 O2    c    0.916667 *  0.333333 *  0.020728 *  -1.21800    1.000000    
    195 O2    c    0.750000 *  0.333333 *  0.020728 *  -1.21800    1.000000    
    196 O2    c    0.583333 *  0.333333 *  0.020728 *  -1.21800    1.000000    
    197 O2    c    0.416667 *  0.333333 *  0.020728 *  -1.21800    1.000000    
    198 O2    c    0.250000 *  0.333333 *  0.020728 *  -1.21800    1.000000    
    199 O2    c    0.833333 *  0.772670 *  0.998297 *  -1.21800    1.000000    
    200 O2    c    0.666667 *  0.772670 *  0.998297 *  -1.21800    1.000000    
    201 O2    c    0.500000 *  0.772670 *  0.998297 *  -1.21800    1.000000    
    202 O2    c    0.333333 *  0.772670 *  0.998297 *  -1.21800    1.000000    
    203 O2    c    0.166667 *  0.772670 *  0.998297 *  -1.21800    1.000000    
    204 O2    c    0.000000 *  0.772670 *  0.998297 *  -1.21800    1.000000    
    205 O2    c    0.833333 *  0.439336 *  0.998297 *  -1.21800    1.000000    
    206 O2    c    0.666667 *  0.439336 *  0.998297 *  -1.21800    1.000000    
    207 O2    c    0.500000 *  0.439336 *  0.998297 *  -1.21800    1.000000    
    208 O2    c    0.333333 *  0.439336 *  0.998297 *  -1.21800    1.000000    
    209 O2    c    0.166667 *  0.439336 *  0.998297 *  -1.21800    1.000000    
    210 O2    c    0.000000 *  0.439336 *  0.998297 *  -1.21800    1.000000    
    211 O2    c    0.666667 *  0.106003 *  0.998297 *  -1.21800    1.000000    
    212 O2    c    0.166667 *  0.106003 *  0.998297 *  -1.21800    1.000000    
    213 O2    c    0.000000 *  0.106003 *  0.998297 *  -1.21800    1.000000    
    214 O2    c    0.833333 *  0.106003 *  0.998297 *  -1.21800    1.000000    
    215 O2    c    0.500000 *  0.106003 *  0.998297 *  -1.21800    1.000000    
    216 O2    c    0.333333 *  0.106003 *  0.998297 *  -1.21800    1.000000    
    217 O2    c    0.000000 *  0.227330 *  0.998297 *  -1.21800    1.000000    
    218 O2    c    0.833333 *  0.893997 *  0.998297 *  -1.21800    1.000000    
    219 O2    c    0.666667 *  0.893997 *  0.998297 *  -1.21800    1.000000    
    220 O2    c    0.500000 *  0.893997 *  0.998297 *  -1.21800    1.000000    
    221 O2    c    0.333333 *  0.893997 *  0.998297 *  -1.21800    1.000000    
    222 O2    c    0.166667 *  0.893997 *  0.998297 *  -1.21800    1.000000    
    223 O2    c    0.000000 *  0.893997 *  0.998297 *  -1.21800    1.000000    
    224 O2    c    0.666667 *  0.560663 *  0.998297 *  -1.21800    1.000000    
    225 O2    c    0.166667 *  0.560663 *  0.998297 *  -1.21800    1.000000    
    226 O2    c    0.000000 *  0.560663 *  0.998297 *  -1.21800    1.000000    
    227 O2    c    0.833333 *  0.227330 *  0.998297 *  -1.21800    1.000000    
    228 O2    c    0.666667 *  0.227330 *  0.998297 *  -1.21800    1.000000    
    229 O2    c    0.500000 *  0.227330 *  0.998297 *  -1.21800    1.000000    
    230 O2    c    0.333333 *  0.227330 *  0.998297 *  -1.21800    1.000000    
    231 O2    c    0.166667 *  0.227330 *  0.998297 *  -1.21800    1.000000    
    232 O2    c    0.833333 *  0.560663 *  0.998297 *  -1.21800    1.000000    
    233 O2    c    0.500000 *  0.560663 *  0.998297 *  -1.21800    1.000000    
    234 O2    c    0.333333 *  0.560663 *  0.998297 *  -1.21800    1.000000    
    235 O2    c    0.083333 *  0.333333 *  0.971642 *  -1.21800    1.000000    
    236 O2    c    0.916667 *  0.000000 *  0.971642 *  -1.21800    1.000000    
    237 O2    c    0.750000 *  0.000000 *  0.971642 *  -1.21800    1.000000    
    238 O2    c    0.583333 *  0.000000 *  0.971642 *  -1.21800    1.000000    
    239 O2    c    0.416667 *  0.000000 *  0.971642 *  -1.21800    1.000000    
    240 O2    c    0.250000 *  0.000000 *  0.971642 *  -1.21800    1.000000    
    241 O2    c    0.083333 *  0.000000 *  0.971642 *  -1.21800    1.000000    
    242 O2    c    0.916667 *  0.666667 *  0.971642 *  -1.21800    1.000000    
    243 O2    c    0.750000 *  0.666667 *  0.971642 *  -1.21800    1.000000    
    244 O2    c    0.583333 *  0.666667 *  0.971642 *  -1.21800    1.000000    
    245 O2    c    0.416667 *  0.666667 *  0.971642 *  -1.21800    1.000000    
    246 O2    c    0.250000 *  0.666667 *  0.971642 *  -1.21800    1.000000    
    247 O2    c    0.083333 *  0.666667 *  0.971642 *  -1.21800    1.000000    
    248 O2    c    0.916667 *  0.333333 *  0.971642 *  -1.21800    1.000000    
    249 O2    c    0.750000 *  0.333333 *  0.971642 *  -1.21800    1.000000    
    250 O2    c    0.583333 *  0.333333 *  0.971642 *  -1.21800    1.000000    
    251 O2    c    0.416667 *  0.333333 *  0.971642 *  -1.21800    1.000000    
    252 O2    c    0.250000 *  0.333333 *  0.971642 *  -1.21800    1.000000    
    253 O2    c    0.083333 *  0.166667 *  0.956222 *  -1.21800    1.000000    
    254 O2    c    0.916667 *  0.833333 *  0.956222 *  -1.21800    1.000000    
    255 O2    c    0.750000 *  0.833333 *  0.956222 *  -1.21800    1.000000    
    256 O2    c    0.583333 *  0.833333 *  0.956222 *  -1.21800    1.000000    
    257 O2    c    0.416667 *  0.833333 *  0.956222 *  -1.21800    1.000000    
    258 O2    c    0.250000 *  0.833333 *  0.956222 *  -1.21800    1.000000    
    259 O2    c    0.083333 *  0.833333 *  0.956222 *  -1.21800    1.000000    
    260 O2    c    0.916667 *  0.500000 *  0.956222 *  -1.21800    1.000000    
    261 O2    c    0.750000 *  0.500000 *  0.956222 *  -1.21800    1.000000    
    262 O2    c    0.583333 *  0.500000 *  0.956222 *  -1.21800    1.000000    
    263 O2    c    0.416667 *  0.500000 *  0.956222 *  -1.21800    1.000000    
    264 O2    c    0.250000 *  0.500000 *  0.956222 *  -1.21800    1.000000    
    265 O2    c    0.083333 *  0.500000 *  0.956222 *  -1.21800    1.000000    
    266 O2    c    0.916667 *  0.166667 *  0.956222 *  -1.21800    1.000000    
    267 O2    c    0.750000 *  0.166667 *  0.956222 *  -1.21800    1.000000    
    268 O2    c    0.583333 *  0.166667 *  0.956222 *  -1.21800    1.000000    
    269 O2    c    0.416667 *  0.166667 *  0.956222 *  -1.21800    1.000000    
    270 O2    c    0.250000 *  0.166667 *  0.956222 *  -1.21800    1.000000    
    271 O2    c    0.000000 *  0.267805 *  0.931404 *  -1.21800    1.000000    
    272 O2    c    0.000000 *  0.065529 *  0.931404 *  -1.21800    1.000000    
    273 O2    c    0.833333 *  0.934471 *  0.931404 *  -1.21800    1.000000    
    274 O2    c    0.833333 *  0.732195 *  0.931404 *  -1.21800    1.000000    
    275 O2    c    0.666667 *  0.934471 *  0.931404 *  -1.21800    1.000000    
    276 O2    c    0.666667 *  0.732195 *  0.931404 *  -1.21800    1.000000    
    277 O2    c    0.500000 *  0.934471 *  0.931404 *  -1.21800    1.000000    
    278 O2    c    0.500000 *  0.732195 *  0.931404 *  -1.21800    1.000000    
    279 O2    c    0.333333 *  0.934471 *  0.931404 *  -1.21800    1.000000    
    280 O2    c    0.333333 *  0.732195 *  0.931404 *  -1.21800    1.000000    
    281 O2    c    0.166667 *  0.934471 *  0.931404 *  -1.21800    1.000000    
    282 O2    c    0.166667 *  0.732195 *  0.931404 *  -1.21800    1.000000    
    283 O2    c    0.000000 *  0.934471 *  0.931404 *  -1.21800    1.000000    
    284 O2    c    0.000000 *  0.732195 *  0.931404 *  -1.21800    1.000000    
    285 O2    c    0.833333 *  0.601138 *  0.931404 *  -1.21800    1.000000    
    286 O2    c    0.833333 *  0.398862 *  0.931404 *  -1.21800    1.000000    
    287 O2    c    0.666667 *  0.601138 *  0.931404 *  -1.21800    1.000000    
    288 O2    c    0.666667 *  0.398862 *  0.931404 *  -1.21800    1.000000    
    289 O2    c    0.500000 *  0.601138 *  0.931404 *  -1.21800    1.000000    
    290 O2    c    0.500000 *  0.398862 *  0.931404 *  -1.21800    1.000000    
    291 O2    c    0.333333 *  0.601138 *  0.931404 *  -1.21800    1.000000    
    292 O2    c    0.333333 *  0.398862 *  0.931404 *  -1.21800    1.000000    
    293 O2    c    0.166667 *  0.601138 *  0.931404 *  -1.21800    1.000000    
    294 O2    c    0.166667 *  0.398862 *  0.931404 *  -1.21800    1.000000    
    295 O2    c    0.000000 *  0.601138 *  0.931404 *  -1.21800    1.000000    
    296 O2    c    0.000000 *  0.398862 *  0.931404 *  -1.21800    1.000000    
    297 O2    c    0.833333 *  0.267805 *  0.931404 *  -1.21800    1.000000    
    298 O2    c    0.833333 *  0.065529 *  0.931404 *  -1.21800    1.000000    
    299 O2    c    0.666667 *  0.267805 *  0.931404 *  -1.21800    1.000000    
    300 O2    c    0.666667 *  0.065529 *  0.931404 *  -1.21800    1.000000    
    301 O2    c    0.500000 *  0.267805 *  0.931404 *  -1.21800    1.000000    
    302 O2    c    0.500000 *  0.065529 *  0.931404 *  -1.21800    1.000000    
    303 O2    c    0.333333 *  0.267805 *  0.931404 *  -1.21800    1.000000    
    304 O2    c    0.333333 *  0.065529 *  0.931404 *  -1.21800    1.000000    
    305 O2    c    0.166667 *  0.267805 *  0.931404 *  -1.21800    1.000000    
    306 O2    c    0.166667 *  0.065529 *  0.931404 *  -1.21800    1.000000    
    307 O2    c    0.083333 *  0.166667 *  0.905429 *  -1.21800    1.000000    
    308 O2    c    0.916667 *  0.833333 *  0.905429 *  -1.21800    1.000000    
    309 O2    c    0.750000 *  0.833333 *  0.905429 *  -1.21800    1.000000    
    310 O2    c    0.583333 *  0.833333 *  0.905429 *  -1.21800    1.000000    
    311 O2    c    0.416667 *  0.833333 *  0.905429 *  -1.21800    1.000000    
    312 O2    c    0.250000 *  0.833333 *  0.905429 *  -1.21800    1.000000    
    313 O2    c    0.083333 *  0.833333 *  0.905429 *  -1.21800    1.000000    
    314 O2    c    0.916667 *  0.500000 *  0.905429 *  -1.21800    1.000000    
    315 O2    c    0.750000 *  0.500000 *  0.905429 *  -1.21800    1.000000    
    316 O2    c    0.583333 *  0.500000 *  0.905429 *  -1.21800    1.000000    
    317 O2    c    0.416667 *  0.500000 *  0.905429 *  -1.21800    1.000000    
    318 O2    c    0.250000 *  0.500000 *  0.905429 *  -1.21800    1.000000    
    319 O2    c    0.083333 *  0.500000 *  0.905429 *  -1.21800    1.000000    
    320 O2    c    0.916667 *  0.166667 *  0.905429 *  -1.21800    1.000000    
    321 O2    c    0.750000 *  0.166667 *  0.905429 *  -1.21800    1.000000    
    322 O2    c    0.583333 *  0.166667 *  0.905429 *  -1.21800    1.000000    
    323 O2    c    0.416667 *  0.166667 *  0.905429 *  -1.21800    1.000000    
    324 O2    c    0.250000 *  0.166667 *  0.905429 *  -1.21800    1.000000    
    325 O2    c    0.083333 *  0.333333 *  0.891777 *  -1.21800    1.000000    
    326 O2    c    0.916667 *  0.000000 *  0.891777 *  -1.21800    1.000000    
    327 O2    c    0.750000 *  0.000000 *  0.891777 *  -1.21800    1.000000    
    328 O2    c    0.583333 *  0.000000 *  0.891777 *  -1.21800    1.000000    
    329 O2    c    0.416667 *  0.000000 *  0.891777 *  -1.21800    1.000000    
    330 O2    c    0.250000 *  0.000000 *  0.891777 *  -1.21800    1.000000    
    331 O2    c    0.083333 *  0.000000 *  0.891777 *  -1.21800    1.000000    
    332 O2    c    0.916667 *  0.666667 *  0.891777 *  -1.21800    1.000000    
    333 O2    c    0.750000 *  0.666667 *  0.891777 *  -1.21800    1.000000    
    334 O2    c    0.583333 *  0.666667 *  0.891777 *  -1.21800    1.000000    
    335 O2    c    0.416667 *  0.666667 *  0.891777 *  -1.21800    1.000000    
    336 O2    c    0.250000 *  0.666667 *  0.891777 *  -1.21800    1.000000    
    337 O2    c    0.083333 *  0.666667 *  0.891777 *  -1.21800    1.000000    
    338 O2    c    0.916667 *  0.333333 *  0.891777 *  -1.21800    1.000000    
    339 O2    c    0.750000 *  0.333333 *  0.891777 *  -1.21800    1.000000    
    340 O2    c    0.583333 *  0.333333 *  0.891777 *  -1.21800    1.000000    
    341 O2    c    0.416667 *  0.333333 *  0.891777 *  -1.21800    1.000000    
    342 O2    c    0.250000 *  0.333333 *  0.891777 *  -1.21800    1.000000    
    343 O2    c    0.000000 *  0.101862 *  0.866092 *  -1.21800    1.000000    
    344 O2    c    0.000000 *  0.231471 *  0.866092 *  -1.21800    1.000000    
    345 O2    c    0.833333 *  0.768529 *  0.866092 *  -1.21800    1.000000    
    346 O2    c    0.833333 *  0.898138 *  0.866092 *  -1.21800    1.000000    
    347 O2    c    0.666667 *  0.768529 *  0.866092 *  -1.21800    1.000000    
    348 O2    c    0.666667 *  0.898138 *  0.866092 *  -1.21800    1.000000    
    349 O2    c    0.500000 *  0.768529 *  0.866092 *  -1.21800    1.000000    
    350 O2    c    0.500000 *  0.898138 *  0.866092 *  -1.21800    1.000000    
    351 O2    c    0.333333 *  0.768529 *  0.866092 *  -1.21800    1.000000    
    352 O2    c    0.333333 *  0.898138 *  0.866092 *  -1.21800    1.000000    
    353 O2    c    0.166667 *  0.768529 *  0.866092 *  -1.21800    1.000000    
    354 O2    c    0.166667 *  0.898138 *  0.866092 *  -1.21800    1.000000    
    355 O2    c    0.000000 *  0.768529 *  0.866092 *  -1.21800    1.000000    
    356 O2    c    0.000000 *  0.898138 *  0.866092 *  -1.21800    1.000000    
    357 O2    c    0.833333 *  0.435195 *  0.866092 *  -1.21800    1.000000    
    358 O2    c    0.833333 *  0.564805 *  0.866092 *  -1.21800    1.000000    
    359 O2    c    0.666667 *  0.435195 *  0.866092 *  -1.21800    1.000000    
    360 O2    c    0.666667 *  0.564805 *  0.866092 *  -1.21800    1.000000    
    361 O2    c    0.500000 *  0.435195 *  0.866092 *  -1.21800    1.000000    
    362 O2    c    0.500000 *  0.564805 *  0.866092 *  -1.21800    1.000000    
    363 O2    c    0.333333 *  0.435195 *  0.866092 *  -1.21800    1.000000    
    364 O2    c    0.333333 *  0.564805 *  0.866092 *  -1.21800    1.000000    
    365 O2    c    0.166667 *  0.435195 *  0.866092 *  -1.21800    1.000000    
    366 O2    c    0.166667 *  0.564805 *  0.866092 *  -1.21800    1.000000    
    367 O2    c    0.000000 *  0.435195 *  0.866092 *  -1.21800    1.000000    
    368 O2    c    0.000000 *  0.564805 *  0.866092 *  -1.21800    1.000000    
    369 O2    c    0.833333 *  0.101862 *  0.866092 *  -1.21800    1.000000    
    370 O2    c    0.833333 *  0.231471 *  0.866092 *  -1.21800    1.000000    
    371 O2    c    0.666667 *  0.101862 *  0.866092 *  -1.21800    1.000000    
    372 O2    c    0.666667 *  0.231471 *  0.866092 *  -1.21800    1.000000    
    373 O2    c    0.500000 *  0.101862 *  0.866092 *  -1.21800    1.000000    
    374 O2    c    0.500000 *  0.231471 *  0.866092 *  -1.21800    1.000000    
    375 O2    c    0.333333 *  0.101862 *  0.866092 *  -1.21800    1.000000    
    376 O2    c    0.333333 *  0.231471 *  0.866092 *  -1.21800    1.000000    
    377 O2    c    0.166667 *  0.101862 *  0.866092 *  -1.21800    1.000000    
    378 O2    c    0.166667 *  0.231471 *  0.866092 *  -1.21800    1.000000    
    379 O2    c    0.083333 *  0.333333 *  0.840408 *  -1.21800    1.000000    
    380 O2    c    0.916667 *  0.000000 *  0.840408 *  -1.21800    1.000000    
    381 O2    c    0.750000 *  0.000000 *  0.840408 *  -1.21800    1.000000    
    382 O2    c    0.583333 *  0.000000 *  0.840408 *  -1.21800    1.000000    
    383 O2    c    0.416667 *  0.000000 *  0.840408 *  -1.21800    1.000000    
    384 O2    c    0.250000 *  0.000000 *  0.840408 *  -1.21800    1.000000    
    385 O2    c    0.083333 *  0.000000 *  0.840408 *  -1.21800    1.000000    
    386 O2    c    0.916667 *  0.666667 *  0.840408 *  -1.21800    1.000000    
    387 O2    c    0.750000 *  0.666667 *  0.840408 *  -1.21800    1.000000    
    388 O2    c    0.583333 *  0.666667 *  0.840408 *  -1.21800    1.000000    
    389 O2    c    0.416667 *  0.666667 *  0.840408 *  -1.21800    1.000000    
    390 O2    c    0.250000 *  0.666667 *  0.840408 *  -1.21800    1.000000    
    391 O2    c    0.083333 *  0.666667 *  0.840408 *  -1.21800    1.000000    
    392 O2    c    0.916667 *  0.333333 *  0.840408 *  -1.21800    1.000000    
    393 O2    c    0.750000 *  0.333333 *  0.840408 *  -1.21800    1.000000    
    394 O2    c    0.583333 *  0.333333 *  0.840408 *  -1.21800    1.000000    
    395 O2    c    0.416667 *  0.333333 *  0.840408 *  -1.21800    1.000000    
    396 O2    c    0.250000 *  0.333333 *  0.840408 *  -1.21800    1.000000    
    397 O2    c    0.083333 *  0.166667 *  0.826755 *  -1.21800    1.000000    
    398 O2    c    0.916667 *  0.833333 *  0.826755 *  -1.21800    1.000000    
    399 O2    c    0.750000 *  0.833333 *  0.826755 *  -1.21800    1.000000    
    400 O2    c    0.583333 *  0.833333 *  0.826755 *  -1.21800    1.000000    
    401 O2    c    0.416667 *  0.833333 *  0.826755 *  -1.21800    1.000000    
    402 O2    c    0.250000 *  0.833333 *  0.826755 *  -1.21800    1.000000    
    403 O2    c    0.083333 *  0.833333 *  0.826755 *  -1.21800    1.000000    
    404 O2    c    0.916667 *  0.500000 *  0.826755 *  -1.21800    1.000000    
    405 O2    c    0.750000 *  0.500000 *  0.826755 *  -1.21800    1.000000    
    406 O2    c    0.583333 *  0.500000 *  0.826755 *  -1.21800    1.000000    
    407 O2    c    0.416667 *  0.500000 *  0.826755 *  -1.21800    1.000000    
    408 O2    c    0.250000 *  0.500000 *  0.826755 *  -1.21800    1.000000    
    409 O2    c    0.083333 *  0.500000 *  0.826755 *  -1.21800    1.000000    
    410 O2    c    0.916667 *  0.166667 *  0.826755 *  -1.21800    1.000000    
    411 O2    c    0.750000 *  0.166667 *  0.826755 *  -1.21800    1.000000    
    412 O2    c    0.583333 *  0.166667 *  0.826755 *  -1.21800    1.000000    
    413 O2    c    0.416667 *  0.166667 *  0.826755 *  -1.21800    1.000000    
    414 O2    c    0.250000 *  0.166667 *  0.826755 *  -1.21800    1.000000    
    415 O2    c    0.000000 *  0.267805 *  0.800781 *  -1.21800    1.000000    
    416 O2    c    0.000000 *  0.065529 *  0.800781 *  -1.21800    1.000000    
    417 O2    c    0.833333 *  0.934471 *  0.800781 *  -1.21800    1.000000    
    418 O2    c    0.833333 *  0.732195 *  0.800781 *  -1.21800    1.000000    
    419 O2    c    0.666667 *  0.934471 *  0.800781 *  -1.21800    1.000000    
    420 O2    c    0.666667 *  0.732195 *  0.800781 *  -1.21800    1.000000    
    421 O2    c    0.500000 *  0.934471 *  0.800781 *  -1.21800    1.000000    
    422 O2    c    0.500000 *  0.732195 *  0.800781 *  -1.21800    1.000000    
    423 O2    c    0.333333 *  0.934471 *  0.800781 *  -1.21800    1.000000    
    424 O2    c    0.333333 *  0.732195 *  0.800781 *  -1.21800    1.000000    
    425 O2    c    0.166667 *  0.934471 *  0.800781 *  -1.21800    1.000000    
    426 O2    c    0.166667 *  0.732195 *  0.800781 *  -1.21800    1.000000    
    427 O2    c    0.000000 *  0.934471 *  0.800781 *  -1.21800    1.000000    
    428 O2    c    0.000000 *  0.732195 *  0.800781 *  -1.21800    1.000000    
    429 O2    c    0.833333 *  0.601138 *  0.800781 *  -1.21800    1.000000    
    430 O2    c    0.833333 *  0.398862 *  0.800781 *  -1.21800    1.000000    
    431 O2    c    0.666667 *  0.601138 *  0.800781 *  -1.21800    1.000000    
    432 O2    c    0.666667 *  0.398862 *  0.800781 *  -1.21800    1.000000    
    433 O2    c    0.500000 *  0.601138 *  0.800781 *  -1.21800    1.000000    
    434 O2    c    0.500000 *  0.398862 *  0.800781 *  -1.21800    1.000000    
    435 O2    c    0.333333 *  0.601138 *  0.800781 *  -1.21800    1.000000    
    436 O2    c    0.333333 *  0.398862 *  0.800781 *  -1.21800    1.000000    
    437 O2    c    0.166667 *  0.601138 *  0.800781 *  -1.21800    1.000000    
    438 O2    c    0.166667 *  0.398862 *  0.800781 *  -1.21800    1.000000    
    439 O2    c    0.000000 *  0.601138 *  0.800781 *  -1.21800    1.000000    
    440 O2    c    0.000000 *  0.398862 *  0.800781 *  -1.21800    1.000000    
    441 O2    c    0.833333 *  0.267805 *  0.800781 *  -1.21800    1.000000    
    442 O2    c    0.833333 *  0.065529 *  0.800781 *  -1.21800    1.000000    
    443 O2    c    0.666667 *  0.267805 *  0.800781 *  -1.21800    1.000000    
    444 O2    c    0.666667 *  0.065529 *  0.800781 *  -1.21800    1.000000    
    445 O2    c    0.500000 *  0.267805 *  0.800781 *  -1.21800    1.000000    
    446 O2    c    0.500000 *  0.065529 *  0.800781 *  -1.21800    1.000000    
    447 O2    c    0.333333 *  0.267805 *  0.800781 *  -1.21800    1.000000    
    448 O2    c    0.333333 *  0.065529 *  0.800781 *  -1.21800    1.000000    
    449 O2    c    0.166667 *  0.267805 *  0.800781 *  -1.21800    1.000000    
    450 O2    c    0.166667 *  0.065529 *  0.800781 *  -1.21800    1.000000    
    451 O2    c    0.083333 *  0.166667 *  0.775963 *  -1.21800    1.000000    
    452 O2    c    0.916667 *  0.833333 *  0.775963 *  -1.21800    1.000000    
    453 O2    c    0.750000 *  0.833333 *  0.775963 *  -1.21800    1.000000    
    454 O2    c    0.583333 *  0.833333 *  0.775963 *  -1.21800    1.000000    
    455 O2    c    0.416667 *  0.833333 *  0.775963 *  -1.21800    1.000000    
    456 O2    c    0.250000 *  0.833333 *  0.775963 *  -1.21800    1.000000    
    457 O2    c    0.083333 *  0.833333 *  0.775963 *  -1.21800    1.000000    
    458 O2    c    0.916667 *  0.500000 *  0.775963 *  -1.21800    1.000000    
    459 O2    c    0.750000 *  0.500000 *  0.775963 *  -1.21800    1.000000    
    460 O2    c    0.583333 *  0.500000 *  0.775963 *  -1.21800    1.000000    
    461 O2    c    0.416667 *  0.500000 *  0.775963 *  -1.21800    1.000000    
    462 O2    c    0.250000 *  0.500000 *  0.775963 *  -1.21800    1.000000    
    463 O2    c    0.083333 *  0.500000 *  0.775963 *  -1.21800    1.000000    
    464 O2    c    0.916667 *  0.166667 *  0.775963 *  -1.21800    1.000000    
    465 O2    c    0.750000 *  0.166667 *  0.775963 *  -1.21800    1.000000    
    466 O2    c    0.583333 *  0.166667 *  0.775963 *  -1.21800    1.000000    
    467 O2    c    0.416667 *  0.166667 *  0.775963 *  -1.21800    1.000000    
    468 O2    c    0.250000 *  0.166667 *  0.775963 *  -1.21800    1.000000    
    469 O2    c    0.083333 *  0.333333 *  0.760542 *  -1.21800    1.000000    
    470 O2    c    0.916667 *  0.000000 *  0.760542 *  -1.21800    1.000000    
    471 O2    c    0.750000 *  0.000000 *  0.760542 *  -1.21800    1.000000    
    472 O2    c    0.583333 *  0.000000 *  0.760542 *  -1.21800    1.000000    
    473 O2    c    0.416667 *  0.000000 *  0.760542 *  -1.21800    1.000000    
    474 O2    c    0.250000 *  0.000000 *  0.760542 *  -1.21800    1.000000    
    475 O2    c    0.083333 *  0.000000 *  0.760542 *  -1.21800    1.000000    
    476 O2    c    0.916667 *  0.666667 *  0.760542 *  -1.21800    1.000000    
    477 O2    c    0.750000 *  0.666667 *  0.760542 *  -1.21800    1.000000    
    478 O2    c    0.583333 *  0.666667 *  0.760542 *  -1.21800    1.000000    
    479 O2    c    0.416667 *  0.666667 *  0.760542 *  -1.21800    1.000000    
    480 O2    c    0.250000 *  0.666667 *  0.760542 *  -1.21800    1.000000    
    481 O2    c    0.083333 *  0.666667 *  0.760542 *  -1.21800    1.000000    
    482 O2    c    0.916667 *  0.333333 *  0.760542 *  -1.21800    1.000000    
    483 O2    c    0.750000 *  0.333333 *  0.760542 *  -1.21800    1.000000    
    484 O2    c    0.583333 *  0.333333 *  0.760542 *  -1.21800    1.000000    
    485 O2    c    0.416667 *  0.333333 *  0.760542 *  -1.21800    1.000000    
    486 O2    c    0.250000 *  0.333333 *  0.760542 *  -1.21800    1.000000    
    487 O2    c    0.000000 *  0.106003 *  0.733888 *  -1.21800    1.000000    
    488 O2    c    0.833333 *  0.772670 *  0.733888 *  -1.21800    1.000000    
    489 O2    c    0.666667 *  0.772670 *  0.733888 *  -1.21800    1.000000    
    490 O2    c    0.500000 *  0.772670 *  0.733888 *  -1.21800    1.000000    
    491 O2    c    0.333333 *  0.772670 *  0.733888 *  -1.21800    1.000000    
    492 O2    c    0.166667 *  0.772670 *  0.733888 *  -1.21800    1.000000    
    493 O2    c    0.000000 *  0.772670 *  0.733888 *  -1.21800    1.000000    
    494 O2    c    0.833333 *  0.439336 *  0.733888 *  -1.21800    1.000000    
    495 O2    c    0.666667 *  0.439336 *  0.733888 *  -1.21800    1.000000    
    496 O2    c    0.500000 *  0.439336 *  0.733888 *  -1.21800    1.000000    
    497 O2    c    0.333333 *  0.439336 *  0.733888 *  -1.21800    1.000000    
    498 O2    c    0.166667 *  0.439336 *  0.733888 *  -1.21800    1.000000    
    499 O2    c    0.000000 *  0.439336 *  0.733888 *  -1.21800    1.000000    
    500 O2    c    0.833333 *  0.106003 *  0.733888 *  -1.21800    1.000000    
    501 O2    c    0.666667 *  0.106003 *  0.733888 *  -1.21800    1.000000    
    502 O2    c    0.500000 *  0.106003 *  0.733888 *  -1.21800    1.000000    
    503 O2    c    0.333333 *  0.106003 *  0.733888 *  -1.21800    1.000000    
    504 O2    c    0.166667 *  0.106003 *  0.733888 *  -1.21800    1.000000    
    505 O2    c    0.000000 *  0.227330 *  0.733888 *  -1.21800    1.000000    
    506 O2    c    0.833333 *  0.893997 *  0.733888 *  -1.21800    1.000000    
    507 O2    c    0.666667 *  0.893997 *  0.733888 *  -1.21800    1.000000    
    508 O2    c    0.500000 *  0.893997 *  0.733888 *  -1.21800    1.000000    
    509 O2    c    0.333333 *  0.893997 *  0.733888 *  -1.21800    1.000000    
    510 O2    c    0.166667 *  0.893997 *  0.733888 *  -1.21800    1.000000    
    511 O2    c    0.000000 *  0.893997 *  0.733888 *  -1.21800    1.000000    
    512 O2    c    0.833333 *  0.560663 *  0.733888 *  -1.21800    1.000000    
    513 O2    c    0.666667 *  0.560663 *  0.733888 *  -1.21800    1.000000    
    514 O2    c    0.500000 *  0.560663 *  0.733888 *  -1.21800    1.000000    
    515 O2    c    0.333333 *  0.560663 *  0.733888 *  -1.21800    1.000000    
    516 O2    c    0.166667 *  0.560663 *  0.733888 *  -1.21800    1.000000    
    517 O2    c    0.000000 *  0.560663 *  0.733888 *  -1.21800    1.000000    
    518 O2    c    0.833333 *  0.227330 *  0.733888 *  -1.21800    1.000000    
    519 O2    c    0.666667 *  0.227330 *  0.733888 *  -1.21800    1.000000    
    520 O2    c    0.500000 *  0.227330 *  0.733888 *  -1.21800    1.000000    
    521 O2    c    0.333333 *  0.227330 *  0.733888 *  -1.21800    1.000000    
    522 O2    c    0.166667 *  0.227330 *  0.733888 *  -1.21800    1.000000    
    523 O2    c    0.083333 *  0.333333 *  0.711457 *  -1.21800    1.000000    
    524 O2    c    0.916667 *  0.000000 *  0.711457 *  -1.21800    1.000000    
    525 O2    c    0.750000 *  0.000000 *  0.711457 *  -1.21800    1.000000    
    526 O2    c    0.583333 *  0.000000 *  0.711457 *  -1.21800    1.000000    
    527 O2    c    0.416667 *  0.000000 *  0.711457 *  -1.21800    1.000000    
    528 O2    c    0.250000 *  0.000000 *  0.711457 *  -1.21800    1.000000    
    529 O2    c    0.083333 *  0.000000 *  0.711457 *  -1.21800    1.000000    
    530 O2    c    0.916667 *  0.666667 *  0.711457 *  -1.21800    1.000000    
    531 O2    c    0.750000 *  0.666667 *  0.711457 *  -1.21800    1.000000    
    532 O2    c    0.583333 *  0.666667 *  0.711457 *  -1.21800    1.000000    
    533 O2    c    0.416667 *  0.666667 *  0.711457 *  -1.21800    1.000000    
    534 O2    c    0.250000 *  0.666667 *  0.711457 *  -1.21800    1.000000    
    535 O2    c    0.083333 *  0.666667 *  0.711457 *  -1.21800    1.000000    
    536 O2    c    0.916667 *  0.333333 *  0.711457 *  -1.21800    1.000000    
    537 O2    c    0.750000 *  0.333333 *  0.711457 *  -1.21800    1.000000    
    538 O2    c    0.583333 *  0.333333 *  0.711457 *  -1.21800    1.000000    
    539 O2    c    0.416667 *  0.333333 *  0.711457 *  -1.21800    1.000000    
    540 O2    c    0.250000 *  0.333333 *  0.711457 *  -1.21800    1.000000    
--------------------------------------------------------------------------------



  Molecule list generated from bond lengths :

  Total number of molecules =     0


********************************************************************************
*  General input information                                                   *
********************************************************************************

  Species output for all configurations : 

--------------------------------------------------------------------------------
  Species    Type    Atomic    Atomic    Charge       Radii (Angs)     Library
                     Number     Mass       (e)     Cova   Ionic  VDW   Symbol
--------------------------------------------------------------------------------
    C913     Core        6      12.01   1.140000   0.770  0.000  1.530          
    C902     Core        6      12.01   0.005000   0.770  0.000  1.530          
    H915     Core        1       1.01   0.112500   0.370  0.000  1.080          
    C912     Core        6      12.01  -0.070250   0.770  0.000  1.530          
    O170     Core        8      16.00  -0.735000   0.730  0.000  1.360          
    O172     Core        8      16.00  -0.714500   0.730  0.000  1.360          
    H21      Core        1       1.01   0.220000   0.370  0.000  1.080          
    O2       Core        8      16.00  -1.218000   0.730  0.000  1.360          
    Ti       Core       22      47.88   2.436000   0.000  0.000  2.190          
--------------------------------------------------------------------------------


  Lattice summation method               =    Ewald          (3-D)
                                         =    Parry          (2-D)
                                         =    Saunders et al (1-D)
  Accuracy factor for lattice sums       =   12.000


  Time limit = Infinity

  Maximum range for interatomic potentials =    100000.000000 Angstroms

  General interatomic potentials :

--------------------------------------------------------------------------------
Atom  Types   Potential      Parameter       Value         Units   Cutoffs(Ang)
  1     2                                                            Min /  Max 
--------------------------------------------------------------------------------
O2   c Ti   c MM3buck       MM3buck A        184000.00    None      3Bond 12.000
                            MM3buck B        11.500000    None      
                            MM3buck C        2.5500000    None      
                            MM3buck epsilon 0.12586926E-01eV        
                            MM3buck rv       3.0441150    Ang       
--------------------------------------------------------------------------------
O2   c O2   c MM3buck       MM3buck A        184000.00    None      3Bond 12.000
                            MM3buck B        11.500000    None      
                            MM3buck C        2.5500000    None      
                            MM3buck epsilon 0.82031500E-02eV        
                            MM3buck rv       3.1875200    Ang       
--------------------------------------------------------------------------------
O2   c O172 c MM3buck       MM3buck A        184000.00    None      3Bond  0.000
                            MM3buck B        11.500000    None      
                            MM3buck C        2.5500000    None      
                            MM3buck epsilon 0.45812399E-02eV        
                            MM3buck rv       3.4137600    Ang       
--------------------------------------------------------------------------------
O2   c O170 c MM3buck       MM3buck A        184000.00    None      3Bond 12.000
                            MM3buck B        11.500000    None      
                            MM3buck C        2.5500000    None      
                            MM3buck epsilon 0.45812399E-02eV        
                            MM3buck rv       3.4137600    Ang       
--------------------------------------------------------------------------------
O172 c Ti   c MM3buck       MM3buck A        184000.00    None      3Bond 12.000
                            MM3buck B        11.500000    None      
                            MM3buck C        2.5500000    None      
                            MM3buck epsilon 0.70294618E-02eV        
                            MM3buck rv       3.2703550    Ang       
--------------------------------------------------------------------------------
O170 c Ti   c MM3buck       MM3buck A        184000.00    None      3Bond 12.000
                            MM3buck B        11.500000    None      
                            MM3buck C        2.5500000    None      
                            MM3buck epsilon 0.70294618E-02eV        
                            MM3buck rv       3.2703550    Ang       
--------------------------------------------------------------------------------
Ti   c Ti   c MM3buck       MM3buck A        184000.00    None      3Bond 12.000
                            MM3buck B        11.500000    None      
                            MM3buck C        2.5500000    None      
                            MM3buck epsilon 0.19313400E-01eV        
                            MM3buck rv       2.9007100    Ang       
--------------------------------------------------------------------------------
H21  c O2   c Lenn/es       Lennard epsilon  0.0000000    eV        3Bond 12.500
                            Lennard sigma/m  0.0000000    Ang       
                            Exponent m        12          None
                            Exponent n         6          None
--------------------------------------------------------------------------------
H21  c H21  c Lenn/es       Lennard epsilon 0.19900000E-02eV        3Bond 12.500
                            Lennard sigma/m 0.22450000    Ang       
                            Exponent m        12          None
                            Exponent n         6          None
--------------------------------------------------------------------------------
H21  c O170 c Lenn/es       Lennard epsilon 0.32179843E-02eV        3Bond 12.500
                            Lennard sigma/m 0.96225000    Ang       
                            Exponent m        12          None
                            Exponent n         6          None
--------------------------------------------------------------------------------
H21  c C913 c Lenn/es       Lennard epsilon 0.24577764E-02eV        3Bond 12.500
                            Lennard sigma/m  1.1122500    Ang       
                            Exponent m        12          None
                            Exponent n         6          None
--------------------------------------------------------------------------------
H21  c C902 c Lenn/es       Lennard epsilon 0.24577764E-02eV        3Bond 12.500
                            Lennard sigma/m  1.1084500    Ang       
                            Exponent m        12          None
                            Exponent n         6          None
--------------------------------------------------------------------------------
H21  c C912 c Lenn/es       Lennard epsilon 0.24577764E-02eV        3Bond 12.500
                            Lennard sigma/m  1.1084500    Ang       
                            Exponent m        12          None
                            Exponent n         6          None
--------------------------------------------------------------------------------
H21  c H915 c Lenn/es       Lennard epsilon 0.16089906E-02eV        3Bond 12.500
                            Lennard sigma/m 0.79135000    Ang       
                            Exponent m        12          None
                            Exponent n         6          None
--------------------------------------------------------------------------------
H21  c O172 c Lenn/es       Lennard epsilon 0.32179843E-02eV        3Bond 12.500
                            Lennard sigma/m 0.96225000    Ang       
                            Exponent m        12          None
                            Exponent n         6          None
--------------------------------------------------------------------------------
H915 c O172 c Lenn/es       Lennard epsilon 0.26018625E-02eV        3Bond 12.500
                            Lennard sigma/m  1.5291000    Ang       
                            Exponent m        12          None
                            Exponent n         6          None
--------------------------------------------------------------------------------
C902 c O172 c Lenn/es       Lennard epsilon 0.39744150E-02eV        3Bond 12.500
                            Lennard sigma/m  1.8462000    Ang       
                            Exponent m        12          None
                            Exponent n         6          None
--------------------------------------------------------------------------------
C912 c O172 c Lenn/es       Lennard epsilon 0.39744150E-02eV        3Bond 12.500
                            Lennard sigma/m  1.8462000    Ang       
                            Exponent m        12          None
                            Exponent n         6          None
--------------------------------------------------------------------------------
C913 c O172 c Lenn/es       Lennard epsilon 0.39744150E-02eV        3Bond 12.500
                            Lennard sigma/m  1.8500000    Ang       
                            Exponent m        12          None
                            Exponent n         6          None
--------------------------------------------------------------------------------
C912 c O170 c Lenn/es       Lennard epsilon 0.39744150E-02eV        3Bond 12.500
                            Lennard sigma/m  1.8462000    Ang       
                            Exponent m        12          None
                            Exponent n         6          None
--------------------------------------------------------------------------------
C912 c C912 c Lenn/es       Lennard epsilon 0.30355100E-02eV        3Bond 12.500
                            Lennard sigma/m  1.9924000    Ang       
                            Exponent m        12          None
                            Exponent n         6          None
--------------------------------------------------------------------------------
C902 c O170 c Lenn/es       Lennard epsilon 0.39744150E-02eV        3Bond 12.500
                            Lennard sigma/m  1.8462000    Ang       
                            Exponent m        12          None
                            Exponent n         6          None
--------------------------------------------------------------------------------
C902 c C912 c Lenn/es       Lennard epsilon 0.30355100E-02eV        3Bond 12.500
                            Lennard sigma/m  1.9924000    Ang       
                            Exponent m        12          None
                            Exponent n         6          None
--------------------------------------------------------------------------------
C902 c C902 c Lenn/es       Lennard epsilon 0.30355100E-02eV        3Bond 12.500
                            Lennard sigma/m  1.9924000    Ang       
                            Exponent m        12          None
                            Exponent n         6          None
--------------------------------------------------------------------------------
H915 c O170 c Lenn/es       Lennard epsilon 0.26018625E-02eV        3Bond 12.500
                            Lennard sigma/m  1.5291000    Ang       
                            Exponent m        12          None
                            Exponent n         6          None
--------------------------------------------------------------------------------
H915 c C912 c Lenn/es       Lennard epsilon 0.19872056E-02eV        3Bond 12.500
                            Lennard sigma/m  1.6753000    Ang       
                            Exponent m        12          None
                            Exponent n         6          None
--------------------------------------------------------------------------------
H915 c C902 c Lenn/es       Lennard epsilon 0.19872056E-02eV        3Bond 12.500
                            Lennard sigma/m  1.6753000    Ang       
                            Exponent m        12          None
                            Exponent n         6          None
--------------------------------------------------------------------------------
H915 c H915 c Lenn/es       Lennard epsilon 0.13009300E-02eV        3Bond 12.500
                            Lennard sigma/m  1.3582000    Ang       
                            Exponent m        12          None
                            Exponent n         6          None
--------------------------------------------------------------------------------
C913 c O170 c Lenn/es       Lennard epsilon 0.39744150E-02eV        3Bond 12.500
                            Lennard sigma/m  1.8500000    Ang       
                            Exponent m        12          None
                            Exponent n         6          None
--------------------------------------------------------------------------------
C912 c C913 c Lenn/es       Lennard epsilon 0.30355100E-02eV        3Bond 12.500
                            Lennard sigma/m  1.9962000    Ang       
                            Exponent m        12          None
                            Exponent n         6          None
--------------------------------------------------------------------------------
C902 c C913 c Lenn/es       Lennard epsilon 0.30355100E-02eV        3Bond 12.500
                            Lennard sigma/m  1.9962000    Ang       
                            Exponent m        12          None
                            Exponent n         6          None
--------------------------------------------------------------------------------
H915 c C913 c Lenn/es       Lennard epsilon 0.19872056E-02eV        3Bond 12.500
                            Lennard sigma/m  1.6791000    Ang       
                            Exponent m        12          None
                            Exponent n         6          None
--------------------------------------------------------------------------------
C913 c C913 c Lenn/es       Lennard epsilon 0.30355100E-02eV        3Bond 12.500
                            Lennard sigma/m  2.0000000    Ang       
                            Exponent m        12          None
                            Exponent n         6          None
--------------------------------------------------------------------------------

  Intramolecular potentials :

--------------------------------------------------------------------------------
Atom  Types   Potential      Parameter       Value         Units   Cutoffs(Ang)
  1     2                                                            Min /  Max 
--------------------------------------------------------------------------------
H21  c O172 c Harmonic      Harmonic k2      47.267000    eV*Ang^-2 0.000 1 Bond
                            Harmonic r0     0.96000000    Ang       
                            Harmonic k3      0.0000000    eV*Ang^-3 
                            Harmonic k4      0.0000000    eV*Ang^-4 
--------------------------------------------------------------------------------
C902 c C913 c Harmonic      Harmonic k2      17.345800    eV*Ang^-2 0.000 1 Bond
                            Harmonic r0      1.5000000    Ang       
                            Harmonic k3      0.0000000    eV*Ang^-3 
                            Harmonic k4      0.0000000    eV*Ang^-4 
--------------------------------------------------------------------------------
C912 c C912 c Harmonic      Harmonic k2      26.452300    eV*Ang^-2 0.000 1 Bond
                            Harmonic r0      1.3750000    Ang       
                            Harmonic k3      0.0000000    eV*Ang^-3 
                            Harmonic k4      0.0000000    eV*Ang^-4 
--------------------------------------------------------------------------------
C902 c C912 c Harmonic      Harmonic k2      26.452300    eV*Ang^-2 0.000 1 Bond
                            Harmonic r0      1.3750000    Ang       
                            Harmonic k3      0.0000000    eV*Ang^-3 
                            Harmonic k4      0.0000000    eV*Ang^-4 
--------------------------------------------------------------------------------
H915 c C912 c Harmonic      Harmonic k2      29.487800    eV*Ang^-2 0.000 1 Bond
                            Harmonic r0      1.0800000    Ang       
                            Harmonic k3      0.0000000    eV*Ang^-3 
                            Harmonic k4      0.0000000    eV*Ang^-4 
--------------------------------------------------------------------------------
C913 c O170 c Harmonic      Harmonic k2      45.532700    eV*Ang^-2 0.000 1 Bond
                            Harmonic r0      1.2600000    Ang       
                            Harmonic k3      0.0000000    eV*Ang^-3 
                            Harmonic k4      0.0000000    eV*Ang^-4 
--------------------------------------------------------------------------------
C913 c O172 c Harmonic      Harmonic k2      45.532700    eV*Ang^-2 0.000 1 Bond
                            Harmonic r0      1.2600000    Ang       
                            Harmonic k3      0.0000000    eV*Ang^-3 
                            Harmonic k4      0.0000000    eV*Ang^-4 
--------------------------------------------------------------------------------

  Intramolecular Three-body potentials :

--------------------------------------------------------------------------------
  Atoms       Potential      Parameter       Value         Units   Cutoffs(Ang)
  1 / 2 / 3                                                          Min /  Max 
--------------------------------------------------------------------------------
O172  core    Harmonic      Three-body cnst  4.7700000    eV*rad^-2 0.000 1 Bond
H21   core                  Three-body angl  115.00000    degrees   0.000 1 Bond
C913  core                  Three-body k4    0.0000000    eV*rad^-4 0.000 1 Bond
                            Three-body k3    0.0000000    eV*rad^-3 
--------------------------------------------------------------------------------
C913  core    Harmonic      Three-body cnst  8.6729000    eV*rad^-2 0.000 1 Bond
O170  core                  Three-body angl  133.00000    degrees   0.000 1 Bond
O172  core                  Three-body k4    0.0000000    eV*rad^-4 0.000 1 Bond
                            Three-body k3    0.0000000    eV*rad^-3 
--------------------------------------------------------------------------------
C912  core    Harmonic      Three-body cnst  3.4692000    eV*rad^-2 0.000 1 Bond
C902  core                  Three-body angl  120.00000    degrees   0.000 1 Bond
C912  core                  Three-body k4    0.0000000    eV*rad^-4 0.000 1 Bond
                            Three-body k3    0.0000000    eV*rad^-3 
--------------------------------------------------------------------------------
C902  core    Harmonic      Three-body cnst  3.4692000    eV*rad^-2 0.000 1 Bond
C912  core                  Three-body angl  120.00000    degrees   0.000 1 Bond
C912  core                  Three-body k4    0.0000000    eV*rad^-4 0.000 1 Bond
                            Three-body k3    0.0000000    eV*rad^-3 
--------------------------------------------------------------------------------
C902  core    Harmonic      Three-body cnst  3.9028000    eV*rad^-2 0.000 1 Bond
C912  core                  Three-body angl  119.00000    degrees   0.000 1 Bond
C913  core                  Three-body k4    0.0000000    eV*rad^-4 0.000 1 Bond
                            Three-body k3    0.0000000    eV*rad^-3 
--------------------------------------------------------------------------------
C912  core    Harmonic      Three-body cnst  2.6019000    eV*rad^-2 0.000 1 Bond
H915  core                  Three-body angl  120.00000    degrees   0.000 1 Bond
C902  core                  Three-body k4    0.0000000    eV*rad^-4 0.000 1 Bond
                            Three-body k3    0.0000000    eV*rad^-3 
--------------------------------------------------------------------------------
C912  core    Harmonic      Three-body cnst  2.6019000    eV*rad^-2 0.000 1 Bond
H915  core                  Three-body angl  120.00000    degrees   0.000 1 Bond
C912  core                  Three-body k4    0.0000000    eV*rad^-4 0.000 1 Bond
                            Three-body k3    0.0000000    eV*rad^-3 
--------------------------------------------------------------------------------
C913  core    Harmonic      Three-body cnst  3.4692000    eV*rad^-2 0.000 1 Bond
C902  core                  Three-body angl  116.00000    degrees   0.000 1 Bond
O170  core                  Three-body k4    0.0000000    eV*rad^-4 0.000 1 Bond
                            Three-body k3    0.0000000    eV*rad^-3 
--------------------------------------------------------------------------------
C913  core    Harmonic      Three-body cnst  3.4692000    eV*rad^-2 0.000 1 Bond
C902  core                  Three-body angl  116.00000    degrees   0.000 1 Bond
O172  core                  Three-body k4    0.0000000    eV*rad^-4 0.000 1 Bond
                            Three-body k3    0.0000000    eV*rad^-3 
--------------------------------------------------------------------------------

  Intramolecular Four-body potentials :

--------------------------------------------------------------------------------
  Atoms       Potential      Parameter       Value         Units   Cutoffs(Ang)
  1 - 4                                                             Min /  Max 
--------------------------------------------------------------------------------
C902  core    Standard      Torsional const 0.13443000    eV         Bonded
C912  core Phase = +  2                                                       
C912  core                                                              
C902  core
--------------------------------------------------------------------------------
C912  core    Standard      Torsional const 0.13443000    eV         Bonded
C902  core Phase = +  2                                                       
C912  core                                                              
C912  core
--------------------------------------------------------------------------------
C902  core    Standard      Torsional const 0.18213000    eV         Bonded
C912  core Phase = +  2                                                       
C912  core                                                              
H915  core
--------------------------------------------------------------------------------
C912  core    Standard      Torsional const 0.18213000    eV         Bonded
C902  core Phase = +  2                                                       
C912  core                                                              
H915  core
--------------------------------------------------------------------------------
O170  core    Standard      Torsional const  1.0601600    eV         Bonded
C913  core Phase = +  2                                                       
C902  core                                                              
C912  core
--------------------------------------------------------------------------------
O172  core    Standard      Torsional const  1.0601600    eV         Bonded
C913  core Phase = +  2                                                       
C902  core                                                              
C912  core
--------------------------------------------------------------------------------
C913  core    Standard      Torsional const 0.13443000    eV         Bonded
C902  core Phase = +  2                                                       
C912  core                                                              
C912  core
--------------------------------------------------------------------------------
C913  core    Standard      Torsional const 0.10407000    eV         Bonded
C902  core Phase = +  2                                                       
C912  core                                                              
H915  core
--------------------------------------------------------------------------------
H915  core    Standard      Torsional const 0.10407000    eV         Bonded
C912  core Phase = +  2                                                       
C912  core                                                              
H915  core
--------------------------------------------------------------------------------
C902  core    Standard      Torsional const 0.88896000E-01eV         Bonded
C913  core Phase = +  2                                                       
O172  core                                                              
H21   core
--------------------------------------------------------------------------------
O170  core    Standard      Torsional const 0.88896000E-01eV         Bonded
C913  core Phase = +  2                                                       
O172  core                                                              
H21   core
--------------------------------------------------------------------------------
O172  core    Standard      Torsional const 0.88896000E-01eV         Bonded
C913  core Phase = +  2                                                       
O172  core                                                              
H21   core
--------------------------------------------------------------------------------

********************************************************************************
*  Output for configuration   1                                                *
********************************************************************************


  Components of energy : 

--------------------------------------------------------------------------------
  Interatomic potentials     =        1133.44742155 eV    
  Three-body potentials      =           0.00000000 eV    
  Four-body potentials       =           0.00000000 eV    
  Improper torsions          =           0.00000000 eV    
  Out of plane potentials    =           0.00000000 eV    
  Monopole - monopole (real) =       -7954.81102994 eV    
  Monopole - monopole (recip)=       -1522.61796919 eV    
  Monopole - monopole (total)=       -9477.42899913 eV    
--------------------------------------------------------------------------------
  Total lattice energy       =       -8343.98157758 eV    
--------------------------------------------------------------------------------
  Total lattice energy       =         -805066.6728 kJ/(mole unit cells)
--------------------------------------------------------------------------------


  Number of variables =     1617

  Maximum number of calculations  =          1000
  Maximum Hessian update interval =            10
  Maximum step size               =   1.000000000
  Maximum parameter tolerance     =   0.000010000
  Maximum function  tolerance     =   0.000010000
  Maximum gradient  tolerance     =   0.001000000
  Maximum gradient  component     =   0.010000000

  Symmetry not applied to optimisation

  Cell parameters to be optimised using strains

  Newton-Raphson optimiser to be used

  BFGS hessian update to be used

  Dumpfile to be written after every cycle

  Start of bulk optimisation :

  Cycle:      0 Energy:     -8343.981578  Gnorm:      0.000027  CPU:    6.558

  XYZ File written as gulp.xyz                                



  **** Optimisation achieved ****


  Final energy =   -8343.98157758 eV
  Final Gnorm  =       0.00002720

  Components of energy : 

--------------------------------------------------------------------------------
  Interatomic potentials     =        1133.44742155 eV    
  Three-body potentials      =           0.00000000 eV    
  Four-body potentials       =           0.00000000 eV    
  Improper torsions          =           0.00000000 eV    
  Out of plane potentials    =           0.00000000 eV    
  Monopole - monopole (real) =       -7954.81102994 eV    
  Monopole - monopole (recip)=       -1522.61796919 eV    
  Monopole - monopole (total)=       -9477.42899913 eV    
--------------------------------------------------------------------------------
  Total lattice energy       =       -8343.98157758 eV    
--------------------------------------------------------------------------------
  Total lattice energy       =         -805066.6728 kJ/(mole unit cells)
--------------------------------------------------------------------------------

  Final fractional coordinates of atoms :

--------------------------------------------------------------------------------
   No.  Atomic        x           y          z          Radius
        Label       (Frac)      (Frac)     (Frac)       (Angs) 
--------------------------------------------------------------------------------
     1  Ti    c     0.000000    0.333333    0.000000    0.000000
     2  Ti    c     0.833333    0.000000    0.000000    0.000000
     3  Ti    c     0.666667    0.000000    0.000000    0.000000
     4  Ti    c     0.500000    0.000000    0.000000    0.000000
     5  Ti    c     0.333333    0.000000    0.000000    0.000000
     6  Ti    c     0.166667    0.000000    0.000000    0.000000
     7  Ti    c     0.000000    0.000000    0.000000    0.000000
     8  Ti    c     0.833333    0.666667    0.000000    0.000000
     9  Ti    c     0.666667    0.666667    0.000000    0.000000
    10  Ti    c     0.500000    0.666667    0.000000    0.000000
    11  Ti    c     0.333333    0.666667    0.000000    0.000000
    12  Ti    c     0.166667    0.666667    0.000000    0.000000
    13  Ti    c     0.000000    0.666667    0.000000    0.000000
    14  Ti    c     0.833333    0.333333    0.000000    0.000000
    15  Ti    c     0.666667    0.333333    0.000000    0.000000
    16  Ti    c     0.500000    0.333333    0.000000    0.000000
    17  Ti    c     0.333333    0.333333    0.000000    0.000000
    18  Ti    c     0.166667    0.333333    0.000000    0.000000
    19  Ti    c     0.750000    0.833333    0.994911    0.000000
    20  Ti    c     0.583333    0.833333    0.994911    0.000000
    21  Ti    c     0.416667    0.833333    0.994911    0.000000
    22  Ti    c     0.583333    0.500000    0.994911    0.000000
    23  Ti    c     0.250000    0.500000    0.994911    0.000000
    24  Ti    c     0.083333    0.500000    0.994911    0.000000
    25  Ti    c     0.583333    0.166667    0.994911    0.000000
    26  Ti    c     0.250000    0.166667    0.994911    0.000000
    27  Ti    c     0.083333    0.166667    0.994911    0.000000
    28  Ti    c     0.916667    0.833333    0.994911    0.000000
    29  Ti    c     0.250000    0.833333    0.994911    0.000000
    30  Ti    c     0.083333    0.833333    0.994911    0.000000
    31  Ti    c     0.916667    0.500000    0.994911    0.000000
    32  Ti    c     0.750000    0.500000    0.994911    0.000000
    33  Ti    c     0.416667    0.500000    0.994911    0.000000
    34  Ti    c     0.916667    0.166667    0.994911    0.000000
    35  Ti    c     0.750000    0.166667    0.994911    0.000000
    36  Ti    c     0.416667    0.166667    0.994911    0.000000
    37  Ti    c     0.000000    0.166667    0.930361    0.000000
    38  Ti    c     0.833333    0.833333    0.930361    0.000000
    39  Ti    c     0.666667    0.833333    0.930361    0.000000
    40  Ti    c     0.500000    0.833333    0.930361    0.000000
    41  Ti    c     0.333333    0.833333    0.930361    0.000000
    42  Ti    c     0.166667    0.833333    0.930361    0.000000
    43  Ti    c     0.000000    0.833333    0.930361    0.000000
    44  Ti    c     0.833333    0.500000    0.930361    0.000000
    45  Ti    c     0.666667    0.500000    0.930361    0.000000
    46  Ti    c     0.500000    0.500000    0.930361    0.000000
    47  Ti    c     0.333333    0.500000    0.930361    0.000000
    48  Ti    c     0.166667    0.500000    0.930361    0.000000
    49  Ti    c     0.000000    0.500000    0.930361    0.000000
    50  Ti    c     0.833333    0.166667    0.930361    0.000000
    51  Ti    c     0.666667    0.166667    0.930361    0.000000
    52  Ti    c     0.500000    0.166667    0.930361    0.000000
    53  Ti    c     0.333333    0.166667    0.930361    0.000000
    54  Ti    c     0.166667    0.166667    0.930361    0.000000
    55  Ti    c     0.083333    0.333333    0.932186    0.000000
    56  Ti    c     0.916667    0.000000    0.932186    0.000000
    57  Ti    c     0.750000    0.000000    0.932186    0.000000
    58  Ti    c     0.583333    0.000000    0.932186    0.000000
    59  Ti    c     0.416667    0.000000    0.932186    0.000000
    60  Ti    c     0.250000    0.000000    0.932186    0.000000
    61  Ti    c     0.083333    0.000000    0.932186    0.000000
    62  Ti    c     0.916667    0.666667    0.932186    0.000000
    63  Ti    c     0.750000    0.666667    0.932186    0.000000
    64  Ti    c     0.583333    0.666667    0.932186    0.000000
    65  Ti    c     0.416667    0.666667    0.932186    0.000000
    66  Ti    c     0.250000    0.666667    0.932186    0.000000
    67  Ti    c     0.083333    0.666667    0.932186    0.000000
    68  Ti    c     0.916667    0.333333    0.932186    0.000000
    69  Ti    c     0.750000    0.333333    0.932186    0.000000
    70  Ti    c     0.583333    0.333333    0.932186    0.000000
    71  Ti    c     0.416667    0.333333    0.932186    0.000000
    72  Ti    c     0.250000    0.333333    0.932186    0.000000
    73  Ti    c     0.000000    0.333333    0.866092    0.000000
    74  Ti    c     0.833333    0.000000    0.866092    0.000000
[...]
   284 O2    c     18.813751           0.000007   -1.416347    0.040190
   285 O2    c     18.813751           0.000010    1.416335    0.040188
   286 O2    c     18.813757           0.000010   -1.416359    0.040189
   287 O2    c     18.813762           0.000008    1.416349    0.040192
   288 O2    c     18.813767           0.000008   -1.416373    0.040193
   289 O2    c     18.813754           0.000007    1.416336    0.040190
   290 O2    c     18.813759           0.000007   -1.416360    0.040191
   291 O2    c     18.813751           0.000010    1.416335    0.040188
   292 O2    c     18.813757           0.000010   -1.416359    0.040189
   293 O2    c     18.813762           0.000008    1.416349    0.040192
   294 O2    c     18.813767           0.000008   -1.416373    0.040193
   295 O2    c     18.813754           0.000007    1.416336    0.040190
   296 O2    c     18.813759           0.000007   -1.416360    0.040191
   297 O2    c     18.813743           0.000010    1.416322    0.040188
   298 O2    c     18.813743           0.000010   -1.416351    0.040189
   299 O2    c     18.813753           0.000008    1.416337    0.040192
   300 O2    c     18.813753           0.000008   -1.416365    0.040193
   301 O2    c     18.813745           0.000007    1.416323    0.040190
   302 O2    c     18.813745           0.000007   -1.416352    0.040191
   303 O2    c     18.813743           0.000010    1.416322    0.040188
   304 O2    c     18.813743           0.000010   -1.416351    0.040189
   305 O2    c     18.813753           0.000008    1.416337    0.040192
   306 O2    c     18.813753           0.000008   -1.416365    0.040193
   307 O2    c     19.808488          -0.000006   -0.000002    1.227364
   308 O2    c     19.808488          -0.000010   -0.000004    1.227365
   309 O2    c     19.808488          -0.000014   -0.000004    1.227364
   310 O2    c     19.808488          -0.000006   -0.000004    1.227364
   311 O2    c     19.808488          -0.000010   -0.000004    1.227365
   312 O2    c     19.808488          -0.000014   -0.000004    1.227364
   313 O2    c     19.808488          -0.000006   -0.000004    1.227364
   314 O2    c     19.808498          -0.000010   -0.000003    1.227371
   315 O2    c     19.808498          -0.000014   -0.000003    1.227370
   316 O2    c     19.808498          -0.000006   -0.000003    1.227370
   317 O2    c     19.808498          -0.000010   -0.000003    1.227371
   318 O2    c     19.808498          -0.000014   -0.000003    1.227370
   319 O2    c     19.808498          -0.000006   -0.000003    1.227370
   320 O2    c     19.808488          -0.000010   -0.000002    1.227365
   321 O2    c     19.808488          -0.000014   -0.000002    1.227364
   322 O2    c     19.808488          -0.000006   -0.000002    1.227364
   323 O2    c     19.808488          -0.000010   -0.000002    1.227365
   324 O2    c     19.808488          -0.000014   -0.000002    1.227364
   325 O2    c     19.085104          -0.000005   -0.000001   -1.583738
   326 O2    c     19.085090          -0.000009   -0.000003   -1.583737
   327 O2    c     19.085089          -0.000013   -0.000003   -1.583735
   328 O2    c     19.085090          -0.000005   -0.000003   -1.583735
   329 O2    c     19.085090          -0.000009   -0.000003   -1.583737
   330 O2    c     19.085089          -0.000013   -0.000003   -1.583735
   331 O2    c     19.085090          -0.000005   -0.000003   -1.583735
   332 O2    c     19.085104          -0.000009   -0.000005   -1.583740
   333 O2    c     19.085104          -0.000013   -0.000005   -1.583738
   334 O2    c     19.085104          -0.000005   -0.000005   -1.583738
   335 O2    c     19.085104          -0.000009   -0.000005   -1.583740
   336 O2    c     19.085104          -0.000013   -0.000005   -1.583738
   337 O2    c     19.085104          -0.000005   -0.000005   -1.583738
   338 O2    c     19.085104          -0.000009   -0.000001   -1.583740
   339 O2    c     19.085104          -0.000013   -0.000001   -1.583738
   340 O2    c     19.085104          -0.000005   -0.000001   -1.583738
   341 O2    c     19.085104          -0.000009   -0.000001   -1.583740
   342 O2    c     19.085104          -0.000013   -0.000001   -1.583738
   343 O2    c     18.906259           0.000007    1.797763    0.000008
   344 O2    c     18.906273           0.000007   -1.797789    0.000008
   345 O2    c     18.906266           0.000010    1.797766    0.000008
   346 O2    c     18.906265           0.000010   -1.797786    0.000008
   347 O2    c     18.906273           0.000008    1.797779    0.000008
   348 O2    c     18.906271           0.000008   -1.797799    0.000008
   349 O2    c     18.906267           0.000007    1.797766    0.000008
   350 O2    c     18.906265           0.000007   -1.797786    0.000008
   351 O2    c     18.906266           0.000010    1.797766    0.000008
   352 O2    c     18.906265           0.000010   -1.797786    0.000008
   353 O2    c     18.906273           0.000008    1.797779    0.000008
   354 O2    c     18.906271           0.000008   -1.797799    0.000008
   355 O2    c     18.906267           0.000007    1.797766    0.000008
   356 O2    c     18.906265           0.000007   -1.797786    0.000008
   357 O2    c     18.906271           0.000010    1.797772    0.000008
   358 O2    c     18.906277           0.000010   -1.797795    0.000008
   359 O2    c     18.906277           0.000008    1.797784    0.000008
   360 O2    c     18.906283           0.000008   -1.797807    0.000008
   361 O2    c     18.906271           0.000007    1.797772    0.000008
   362 O2    c     18.906277           0.000007   -1.797795    0.000008
   363 O2    c     18.906271           0.000010    1.797772    0.000008
   364 O2    c     18.906277           0.000010   -1.797795    0.000008
   365 O2    c     18.906277           0.000008    1.797784    0.000008
   366 O2    c     18.906283           0.000008   -1.797807    0.000008
   367 O2    c     18.906271           0.000007    1.797772    0.000008
   368 O2    c     18.906277           0.000007   -1.797795    0.000008
   369 O2    c     18.906258           0.000010    1.797763    0.000008
   370 O2    c     18.906273           0.000010   -1.797789    0.000008
   371 O2    c     18.906265           0.000008    1.797776    0.000008
   372 O2    c     18.906279           0.000008   -1.797802    0.000008
   373 O2    c     18.906259           0.000007    1.797763    0.000008
   374 O2    c     18.906273           0.000007   -1.797789    0.000008
   375 O2    c     18.906258           0.000010    1.797763    0.000008
   376 O2    c     18.906273           0.000010   -1.797789    0.000008
   377 O2    c     18.906265           0.000008    1.797776    0.000008
   378 O2    c     18.906279           0.000008   -1.797802    0.000008
   379 O2    c     19.085023          -0.000005   -0.000001    1.583750
   380 O2    c     19.085008          -0.000009   -0.000003    1.583749
   381 O2    c     19.085008          -0.000013   -0.000003    1.583748
   382 O2    c     19.085009          -0.000005   -0.000003    1.583747
   383 O2    c     19.085008          -0.000009   -0.000003    1.583749
   384 O2    c     19.085008          -0.000013   -0.000003    1.583748
   385 O2    c     19.085009          -0.000005   -0.000003    1.583747
   386 O2    c     19.085023          -0.000009   -0.000005    1.583752
   387 O2    c     19.085022          -0.000013   -0.000005    1.583750
   388 O2    c     19.085023          -0.000005   -0.000005    1.583750
   389 O2    c     19.085023          -0.000009   -0.000005    1.583752
   390 O2    c     19.085022          -0.000013   -0.000005    1.583750
   391 O2    c     19.085023          -0.000005   -0.000005    1.583750
   392 O2    c     19.085023          -0.000009   -0.000001    1.583752
   393 O2    c     19.085022          -0.000013   -0.000001    1.583750
   394 O2    c     19.085023          -0.000005   -0.000001    1.583750
   395 O2    c     19.085023          -0.000009   -0.000001    1.583752
   396 O2    c     19.085022          -0.000013   -0.000001    1.583750
   397 O2    c     19.808466          -0.000006   -0.000002   -1.227415
   398 O2    c     19.808465          -0.000010   -0.000004   -1.227416
   399 O2    c     19.808465          -0.000014   -0.000004   -1.227415
   400 O2    c     19.808466          -0.000006   -0.000004   -1.227415
   401 O2    c     19.808465          -0.000010   -0.000004   -1.227416
   402 O2    c     19.808465          -0.000014   -0.000004   -1.227415
   403 O2    c     19.808466          -0.000006   -0.000004   -1.227415
   404 O2    c     19.808475          -0.000010   -0.000003   -1.227422
   405 O2    c     19.808475          -0.000014   -0.000003   -1.227421
   406 O2    c     19.808476          -0.000006   -0.000003   -1.227421
   407 O2    c     19.808475          -0.000010   -0.000003   -1.227422
   408 O2    c     19.808475          -0.000014   -0.000003   -1.227421
   409 O2    c     19.808476          -0.000006   -0.000003   -1.227421
   410 O2    c     19.808465          -0.000010   -0.000002   -1.227416
   411 O2    c     19.808465          -0.000014   -0.000002   -1.227415
   412 O2    c     19.808466          -0.000006   -0.000002   -1.227415
   413 O2    c     19.808465          -0.000010   -0.000002   -1.227416
   414 O2    c     19.808465          -0.000014   -0.000002   -1.227415
   415 O2    c     18.813693           0.000007    1.416314   -0.040231
   416 O2    c     18.813693           0.000007   -1.416342   -0.040233
   417 O2    c     18.813686           0.000010    1.416317   -0.040230
   418 O2    c     18.813696           0.000010   -1.416337   -0.040230
   419 O2    c     18.813696           0.000008    1.416332   -0.040234
   420 O2    c     18.813707           0.000008   -1.416351   -0.040234
   421 O2    c     18.813688           0.000007    1.416318   -0.040232
   422 O2    c     18.813699           0.000007   -1.416338   -0.040232
   423 O2    c     18.813686           0.000010    1.416317   -0.040230
   424 O2    c     18.813696           0.000010   -1.416337   -0.040230
   425 O2    c     18.813696           0.000008    1.416332   -0.040234
   426 O2    c     18.813707           0.000008   -1.416351   -0.040234
   427 O2    c     18.813688           0.000007    1.416318   -0.040232
   428 O2    c     18.813699           0.000007   -1.416338   -0.040232
   429 O2    c     18.813699           0.000010    1.416325   -0.040229
   430 O2    c     18.813705           0.000010   -1.416349   -0.040230
   431 O2    c     18.813710           0.000008    1.416340   -0.040234
   432 O2    c     18.813715           0.000008   -1.416363   -0.040235
   433 O2    c     18.813702           0.000007    1.416326   -0.040231
   434 O2    c     18.813707           0.000007   -1.416350   -0.040232
   435 O2    c     18.813699           0.000010    1.416325   -0.040229
   436 O2    c     18.813705           0.000010   -1.416349   -0.040230
   437 O2    c     18.813710           0.000008    1.416340   -0.040234
   438 O2    c     18.813715           0.000008   -1.416363   -0.040235
   439 O2    c     18.813702           0.000007    1.416326   -0.040231
   440 O2    c     18.813707           0.000007   -1.416350   -0.040232
   441 O2    c     18.813691           0.000010    1.416313   -0.040229
   442 O2    c     18.813691           0.000010   -1.416341   -0.040231
   443 O2    c     18.813701           0.000008    1.416327   -0.040233
   444 O2    c     18.813701           0.000008   -1.416356   -0.040235
   445 O2    c     18.813693           0.000007    1.416314   -0.040231
   446 O2    c     18.813693           0.000007   -1.416342   -0.040233
   447 O2    c     18.813691           0.000010    1.416313   -0.040229
   448 O2    c     18.813691           0.000010   -1.416341   -0.040231
   449 O2    c     18.813701           0.000008    1.416327   -0.040233
   450 O2    c     18.813701           0.000008   -1.416356   -0.040235
   451 O2    c     19.958920          -0.000005   -0.000001    0.367748
   452 O2    c     19.958917          -0.000008   -0.000004    0.367750
   453 O2    c     19.958918          -0.000014   -0.000004    0.367748
   454 O2    c     19.958920          -0.000005   -0.000004    0.367748
   455 O2    c     19.958917          -0.000008   -0.000004    0.367750
   456 O2    c     19.958918          -0.000014   -0.000004    0.367748
   457 O2    c     19.958920          -0.000005   -0.000004    0.367748
   458 O2    c     19.958926          -0.000008   -0.000002    0.367757
   459 O2    c     19.958927          -0.000014   -0.000002    0.367755
   460 O2    c     19.958929          -0.000005   -0.000002    0.367754
   461 O2    c     19.958926          -0.000008   -0.000002    0.367757
   462 O2    c     19.958927          -0.000014   -0.000002    0.367755
   463 O2    c     19.958929          -0.000005   -0.000002    0.367754
   464 O2    c     19.958917          -0.000008   -0.000001    0.367750
   465 O2    c     19.958918          -0.000014   -0.000001    0.367748
   466 O2    c     19.958920          -0.000005   -0.000001    0.367748
   467 O2    c     19.958917          -0.000008   -0.000001    0.367750
   468 O2    c     19.958918          -0.000014   -0.000001    0.367748
   469 O2    c     18.172776          -0.000001   -0.000001   -0.022265
   470 O2    c     18.172757          -0.000003   -0.000003   -0.022263
   471 O2    c     18.172760          -0.000010   -0.000003   -0.022263
   472 O2    c     18.172764          -0.000001   -0.000003   -0.022263
   473 O2    c     18.172757          -0.000003   -0.000003   -0.022263
   474 O2    c     18.172760          -0.000010   -0.000003   -0.022263
   475 O2    c     18.172764          -0.000001   -0.000003   -0.022263
   476 O2    c     18.172769          -0.000003   -0.000004   -0.022265
   477 O2    c     18.172772          -0.000010   -0.000004   -0.022264
   478 O2    c     18.172776          -0.000001   -0.000004   -0.022265
   479 O2    c     18.172769          -0.000003   -0.000004   -0.022265
   480 O2    c     18.172772          -0.000010   -0.000004   -0.022264
   481 O2    c     18.172776          -0.000001   -0.000004   -0.022265
   482 O2    c     18.172769          -0.000003   -0.000001   -0.022265
   483 O2    c     18.172772          -0.000010   -0.000001   -0.022264
   484 O2    c     18.172776          -0.000001   -0.000001   -0.022265
   485 O2    c     18.172769          -0.000003   -0.000001   -0.022265
   486 O2    c     18.172772          -0.000010   -0.000001   -0.022264
   487 O2    c     19.256737           0.000010    3.373976    0.732659
   488 O2    c     19.256741           0.000013    3.373981    0.732660
   489 O2    c     19.256757           0.000011    3.373990    0.732660
   490 O2    c     19.256745           0.000010    3.373978    0.732660
   491 O2    c     19.256741           0.000013    3.373981    0.732660
   492 O2    c     19.256757           0.000011    3.373990    0.732660
   493 O2    c     19.256745           0.000010    3.373978    0.732660
   494 O2    c     19.256742           0.000013    3.373983    0.732662
   495 O2    c     19.256758           0.000011    3.373992    0.732663
   496 O2    c     19.256746           0.000010    3.373980    0.732662
   497 O2    c     19.256742           0.000013    3.373983    0.732662
   498 O2    c     19.256758           0.000011    3.373992    0.732663
   499 O2    c     19.256746           0.000010    3.373980    0.732662
   500 O2    c     19.256733           0.000013    3.373978    0.732659
   501 O2    c     19.256749           0.000011    3.373987    0.732660
   502 O2    c     19.256737           0.000010    3.373976    0.732659
   503 O2    c     19.256733           0.000013    3.373978    0.732659
   504 O2    c     19.256749           0.000011    3.373987    0.732660
   505 O2    c     19.256757           0.000010   -3.373997    0.732661
   506 O2    c     19.256745           0.000013   -3.373997    0.732660
   507 O2    c     19.256761           0.000011   -3.374006    0.732661
   508 O2    c     19.256749           0.000010   -3.373994    0.732660
   509 O2    c     19.256745           0.000013   -3.373997    0.732660
   510 O2    c     19.256761           0.000011   -3.374006    0.732661
   511 O2    c     19.256749           0.000010   -3.373994    0.732660
   512 O2    c     19.256754           0.000013   -3.374001    0.732664
   513 O2    c     19.256770           0.000011   -3.374010    0.732664
   514 O2    c     19.256758           0.000010   -3.373999    0.732664
   515 O2    c     19.256754           0.000013   -3.374001    0.732664
   516 O2    c     19.256770           0.000011   -3.374010    0.732664
   517 O2    c     19.256758           0.000010   -3.373999    0.732664
   518 O2    c     19.256753           0.000013   -3.374000    0.732661
   519 O2    c     19.256769           0.000011   -3.374009    0.732662
   520 O2    c     19.256757           0.000010   -3.373997    0.732661
   521 O2    c     19.256753           0.000013   -3.374000    0.732661
   522 O2    c     19.256769           0.000011   -3.374009    0.732662
   523 O2    c     16.634500          -0.000007   -0.000003    7.815134
   524 O2    c     16.634484          -0.000013   -0.000004    7.815129
   525 O2    c     16.634486          -0.000005   -0.000004    7.815130
   526 O2    c     16.634490          -0.000007   -0.000004    7.815130
   527 O2    c     16.634484          -0.000013   -0.000004    7.815129
   528 O2    c     16.634486          -0.000005   -0.000004    7.815130
   529 O2    c     16.634490          -0.000007   -0.000004    7.815130
   530 O2    c     16.634494          -0.000013   -0.000004    7.815133
   531 O2    c     16.634496          -0.000005   -0.000004    7.815134
   532 O2    c     16.634500          -0.000007   -0.000004    7.815134
   533 O2    c     16.634494          -0.000013   -0.000004    7.815133
   534 O2    c     16.634496          -0.000005   -0.000004    7.815134
   535 O2    c     16.634500          -0.000007   -0.000004    7.815134
   536 O2    c     16.634494          -0.000013   -0.000003    7.815133
   537 O2    c     16.634496          -0.000005   -0.000003    7.815134
   538 O2    c     16.634500          -0.000007   -0.000003    7.815134
   539 O2    c     16.634494          -0.000013   -0.000003    7.815133
   540 O2    c     16.634496          -0.000005   -0.000003    7.815134
-------------------------------------------------------------------------------

  Total time to end of lattice properties =      27.0283 s


  Peak dynamic memory used =      55.14 MB 


  Timing analysis for GULP :

--------------------------------------------------------------------------------
  Task / Subroutine                                          Time (Seconds)
--------------------------------------------------------------------------------
  Calculation of reciprocal space energy and derivatives         16.5003
  Calculation of real space energy and derivatives                5.8287
  Calculation of three-body energy and derivatives                0.0003
  Calculation of four-body energy and derivatives                 0.0001
  Calculation of molecules and connectivity                       0.0411
  Calculation of phonons                                          7.3219
  Calculation of scattering                                       0.0000
  Symmetry generation of equivalent positions                     0.0023
--------------------------------------------------------------------------------
  Total CPU time                                                 27.0283
--------------------------------------------------------------------------------


  Dump file written as fit1.res                                                


  Job Finished at 17:51.16 24th May        2016                               

