********************************************************************************
*                       GENERAL UTILITY LATTICE PROGRAM                        *
*                                 Julian Gale                                  *
*                      Nanochemistry Research Institute                        *
*                           Department of Chemistry                            *
*                    Curtin University, Western Australia                      *
********************************************************************************
* Version = 4.4.0 * Last modified = 31st March 2015                            *
********************************************************************************
*  optimise     - perform optimisation run                                     *
*  conv         - constant volume calculation                                  *
*  property     - calculate properties for final geometry                      *
*  phonon       - calculate phonons for final geometry                         *
*  potential    - calculate electrostatic site potentials                      *
*  molmec       - molecule option activated, Coulomb subtract 1-2/1-3 terms    *
*  fix_molecule - fix atoms of molecule as at the start of the run             *
*  compare      - compare initial and final structures                         *
*  rfo          - optimisation step to be determined by RFO method             *
********************************************************************************

  Job Started  at 13:05.52 18th May        2016                               

  Number of CPUs =     1


  Total number of configurations input =   1

********************************************************************************
*  Input for Configuration =   1                                               *
********************************************************************************

  Formula = Ti180O446H84C160Zn24                                        

  Number of irreducible atoms/shells =     894


  Total number atoms/shells =     894

  Dimensionality = 3               :  Bulk   



  Cartesian lattice vectors (Angstroms) :

       17.724000    0.000000    0.000000
        0.000000   19.461000    0.000000
        0.000000    0.000000  114.868482

  Cell parameters (Angstroms/Degrees):

  a =      17.7240    alpha =  90.0000
  b =      19.4610    beta  =  90.0000
  c =     114.8685    gamma =  90.0000

  Initial cell volume =       39621.213782 Angs**3

  Temperature of configuration =  0.000     K 

  Pressure of configuration =         0.000 GPa 

  Fractional coordinates of asymmetric unit :

--------------------------------------------------------------------------------
   No.  Atomic       x           y          z         Charge      Occupancy
        Label      (Frac)      (Frac)     (Frac)        (e)         (Frac)  
--------------------------------------------------------------------------------
      1 Ti    c    0.320000    0.733333    0.339268     2.43600    1.000000    
      2 Ti    c    0.159134 *  0.399112 *  0.342112 *   2.43600    1.000000    
      3 Ti    c    0.992269 *  0.398988 *  0.342108 *   2.43600    1.000000    
      4 Ti    c    0.825369 *  0.399162 *  0.342182 *   2.43600    1.000000    
      5 Ti    c    0.660617 *  0.398698 *  0.340635 *   2.43600    1.000000    
      6 Ti    c    0.491658 *  0.399254 *  0.341038 *   2.43600    1.000000    
      7 Ti    c    0.325793 *  0.398924 *  0.342170 *   2.43600    1.000000    
      8 Ti    c    0.158924 *  0.065114 *  0.341585 *   2.43600    1.000000    
      9 Ti    c    0.992544 *  0.065172 *  0.342063 *   2.43600    1.000000    
     10 Ti    c    0.825893 *  0.065433 *  0.342049 *   2.43600    1.000000    
     11 Ti    c    0.659227 *  0.064970 *  0.341941 *   2.43600    1.000000    
     12 Ti    c    0.492181 *  0.065590 *  0.341951 *   2.43600    1.000000    
     13 Ti    c    0.325338 *  0.065303 *  0.341971 *   2.43600    1.000000    
     14 Ti    c    0.157574 *  0.732576 *  0.341633 *   2.43600    1.000000    
     15 Ti    c    0.992163 *  0.732322 *  0.342094 *   2.43600    1.000000    
     16 Ti    c    0.825982 *  0.731997 *  0.342126 *   2.43600    1.000000    
     17 Ti    c    0.659856 *  0.731229 *  0.342151 *   2.43600    1.000000    
     18 Ti    c    0.496285 *  0.731182 *  0.340027 *   2.43600    1.000000    
     19 Ti    c    0.075638 *  0.231570 *  0.339896 *   2.43600    1.000000    
     20 Ti    c    0.908670 *  0.232216 *  0.339924 *   2.43600    1.000000    
     21 Ti    c    0.741932 *  0.232548 *  0.339847 *   2.43600    1.000000    
     22 Ti    c    0.910066 *  0.898635 *  0.339940 *   2.43600    1.000000    
     23 Ti    c    0.575422 *  0.897703 *  0.339815 *   2.43600    1.000000    
     24 Ti    c    0.408111 *  0.900733 *  0.339585 *   2.43600    1.000000    
     25 Ti    c    0.908577 *  0.565647 *  0.339798 *   2.43600    1.000000    
     26 Ti    c    0.575477 *  0.563924 *  0.341439 *   2.43600    1.000000    
     27 Ti    c    0.409089 *  0.563915 *  0.339306 *   2.43600    1.000000    
     28 Ti    c    0.242747 *  0.231445 *  0.339895 *   2.43600    1.000000    
     29 Ti    c    0.575770 *  0.230161 *  0.340164 *   2.43600    1.000000    
     30 Ti    c    0.409591 *  0.232943 *  0.339870 *   2.43600    1.000000    
     31 Ti    c    0.241314 *  0.899221 *  0.341382 *   2.43600    1.000000    
     32 Ti    c    0.076803 *  0.898841 *  0.341567 *   2.43600    1.000000    
     33 Ti    c    0.742711 *  0.898399 *  0.339910 *   2.43600    1.000000    
     34 Ti    c    0.242496 *  0.566633 *  0.339688 *   2.43600    1.000000    
     35 Ti    c    0.075473 *  0.566308 *  0.339796 *   2.43600    1.000000    
     36 Ti    c    0.741970 *  0.565788 *  0.339607 *   2.43600    1.000000    
     37 Ti    c    0.325377 *  0.565353 *  0.312334 *   2.43600    1.000000    
     38 Ti    c    0.159000 *  0.231987 *  0.312779 *   2.43600    1.000000    
     39 Ti    c    0.992277 *  0.232067 *  0.312751 *   2.43600    1.000000    
     40 Ti    c    0.825710 *  0.231969 *  0.312670 *   2.43600    1.000000    
     41 Ti    c    0.658945 *  0.231767 *  0.312793 *   2.43600    1.000000    
     42 Ti    c    0.492427 *  0.231787 *  0.312776 *   2.43600    1.000000    
     43 Ti    c    0.325700 *  0.231997 *  0.312668 *   2.43600    1.000000    
     44 Ti    c    0.158816 *  0.898664 *  0.314196 *   2.43600    1.000000    
     45 Ti    c    0.992630 *  0.898719 *  0.313290 *   2.43600    1.000000    
     46 Ti    c    0.825701 *  0.898582 *  0.312740 *   2.43600    1.000000    
     47 Ti    c    0.659185 *  0.898448 *  0.312662 *   2.43600    1.000000    
     48 Ti    c    0.492521 *  0.898505 *  0.312520 *   2.43600    1.000000    
     49 Ti    c    0.325290 *  0.898720 *  0.313077 *   2.43600    1.000000    
     50 Ti    c    0.158682 *  0.565280 *  0.312577 *   2.43600    1.000000    
     51 Ti    c    0.992218 *  0.565313 *  0.312653 *   2.43600    1.000000    
     52 Ti    c    0.825760 *  0.565429 *  0.312515 *   2.43600    1.000000    
     53 Ti    c    0.658605 *  0.565022 *  0.313182 *   2.43600    1.000000    
     54 Ti    c    0.492880 *  0.564879 *  0.313030 *   2.43600    1.000000    
     55 Ti    c    0.409185 *  0.731580 *  0.312822 *   2.43600    1.000000    
     56 Ti    c    0.242180 *  0.398536 *  0.313518 *   2.43600    1.000000    
     57 Ti    c    0.075680 *  0.398668 *  0.313525 *   2.43600    1.000000    
     58 Ti    c    0.909158 *  0.398675 *  0.313526 *   2.43600    1.000000    
     59 Ti    c    0.743133 *  0.398337 *  0.313177 *   2.43600    1.000000    
     60 Ti    c    0.575548 *  0.398101 *  0.313244 *   2.43600    1.000000    
     61 Ti    c    0.408343 *  0.398236 *  0.313259 *   2.43600    1.000000    
     62 Ti    c    0.242490 *  0.065431 *  0.313470 *   2.43600    1.000000    
     63 Ti    c    0.075548 *  0.065191 *  0.313509 *   2.43600    1.000000    
     64 Ti    c    0.908949 *  0.065352 *  0.313542 *   2.43600    1.000000    
     65 Ti    c    0.742330 *  0.065093 *  0.313486 *   2.43600    1.000000    
     66 Ti    c    0.575671 *  0.065235 *  0.313456 *   2.43600    1.000000    
     67 Ti    c    0.409056 *  0.065244 *  0.313459 *   2.43600    1.000000    
     68 Ti    c    0.240274 *  0.732103 *  0.312587 *   2.43600    1.000000    
     69 Ti    c    0.074826 *  0.732129 *  0.313425 *   2.43600    1.000000    
     70 Ti    c    0.908895 *  0.732068 *  0.313511 *   2.43600    1.000000    
     71 Ti    c    0.742772 *  0.731675 *  0.313490 *   2.43600    1.000000    
     72 Ti    c    0.577245 *  0.731698 *  0.312931 *   2.43600    1.000000    
     73 Ti    c    0.325625 *  0.731883 *  0.285169 *   2.43600    1.000000    
     74 Ti    c    0.158939 *  0.398591 *  0.285654 *   2.43600    1.000000    
     75 Ti    c    0.992358 *  0.398587 *  0.285659 *   2.43600    1.000000    
     76 Ti    c    0.825786 *  0.398560 *  0.285590 *   2.43600    1.000000    
     77 Ti    c    0.658944 *  0.398525 *  0.285453 *   2.43600    1.000000    
     78 Ti    c    0.492328 *  0.398530 *  0.285480 *   2.43600    1.000000    
     79 Ti    c    0.325535 *  0.398567 *  0.285604 *   2.43600    1.000000    
     80 Ti    c    0.158966 *  0.065212 *  0.285740 *   2.43600    1.000000    
     81 Ti    c    0.992316 *  0.065219 *  0.285771 *   2.43600    1.000000    
     82 Ti    c    0.825649 *  0.065210 *  0.285716 *   2.43600    1.000000    
     83 Ti    c    0.659000 *  0.065209 *  0.285652 *   2.43600    1.000000    
     84 Ti    c    0.492354 *  0.065173 *  0.285666 *   2.43600    1.000000    
     85 Ti    c    0.325637 *  0.065176 *  0.285724 *   2.43600    1.000000    
     86 Ti    c    0.158468 *  0.731973 *  0.285389 *   2.43600    1.000000    
     87 Ti    c    0.992127 *  0.731993 *  0.285667 *   2.43600    1.000000    
     88 Ti    c    0.825637 *  0.731870 *  0.285680 *   2.43600    1.000000    
     89 Ti    c    0.659233 *  0.731832 *  0.285469 *   2.43600    1.000000    
     90 Ti    c    0.492444 *  0.731868 *  0.285224 *   2.43600    1.000000    
     91 Ti    c    0.409331 *  0.565139 *  0.285575 *   2.43600    1.000000    
     92 Ti    c    0.242273 *  0.231853 *  0.285680 *   2.43600    1.000000    
     93 Ti    c    0.075667 *  0.231899 *  0.285700 *   2.43600    1.000000    
     94 Ti    c    0.909031 *  0.231882 *  0.285676 *   2.43600    1.000000    
     95 Ti    c    0.742276 *  0.231911 *  0.285666 *   2.43600    1.000000    
     96 Ti    c    0.575654 *  0.231885 *  0.285682 *   2.43600    1.000000    
     97 Ti    c    0.409025 *  0.231894 *  0.285667 *   2.43600    1.000000    
     98 Ti    c    0.241729 *  0.898509 *  0.286138 *   2.43600    1.000000    
     99 Ti    c    0.076003 *  0.898644 *  0.286236 *   2.43600    1.000000    
    100 Ti    c    0.909406 *  0.898586 *  0.285873 *   2.43600    1.000000    
    101 Ti    c    0.742506 *  0.898559 *  0.285670 *   2.43600    1.000000    
    102 Ti    c    0.575706 *  0.898481 *  0.285581 *   2.43600    1.000000    
    103 Ti    c    0.408546 *  0.898515 *  0.285705 *   2.43600    1.000000    
    104 Ti    c    0.242157 *  0.565259 *  0.285472 *   2.43600    1.000000    
    105 Ti    c    0.075494 *  0.565247 *  0.285567 *   2.43600    1.000000    
    106 Ti    c    0.908939 *  0.565183 *  0.285579 *   2.43600    1.000000    
    107 Ti    c    0.741992 *  0.565100 *  0.285701 *   2.43600    1.000000    
    108 Ti    c    0.575748 *  0.565157 *  0.285794 *   2.43600    1.000000    
    109 Ti    c    0.325716 *  0.565220 *  0.258466 *   2.43600    1.000000    
    110 Ti    c    0.158977 *  0.231896 *  0.258645 *   2.43600    1.000000    
    111 Ti    c    0.992315 *  0.231888 *  0.258642 *   2.43600    1.000000    
    112 Ti    c    0.825635 *  0.231877 *  0.258618 *   2.43600    1.000000    
    113 Ti    c    0.658963 *  0.231864 *  0.258610 *   2.43600    1.000000    
    114 Ti    c    0.492318 *  0.231866 *  0.258610 *   2.43600    1.000000    
    115 Ti    c    0.325652 *  0.231886 *  0.258621 *   2.43600    1.000000    
    116 Ti    c    0.158912 *  0.898550 *  0.258997 *   2.43600    1.000000    
    117 Ti    c    0.992480 *  0.898573 *  0.258907 *   2.43600    1.000000    
    118 Ti    c    0.825786 *  0.898568 *  0.258703 *   2.43600    1.000000    
    119 Ti    c    0.659025 *  0.898557 *  0.258577 *   2.43600    1.000000    
    120 Ti    c    0.492200 *  0.898547 *  0.258577 *   2.43600    1.000000    
    121 Ti    c    0.325404 *  0.898539 *  0.258778 *   2.43600    1.000000    
    122 Ti    c    0.158919 *  0.565221 *  0.258487 *   2.43600    1.000000    
    123 Ti    c    0.992232 *  0.565208 *  0.258536 *   2.43600    1.000000    
    124 Ti    c    0.825531 *  0.565204 *  0.258576 *   2.43600    1.000000    
    125 Ti    c    0.658918 *  0.565210 *  0.258633 *   2.43600    1.000000    
    126 Ti    c    0.492421 *  0.565216 *  0.258571 *   2.43600    1.000000    
    127 Ti    c    0.408983 *  0.731903 *  0.257548 *   2.43600    1.000000    
    128 Ti    c    0.242263 *  0.398554 *  0.257801 *   2.43600    1.000000    
    129 Ti    c    0.075632 *  0.398548 *  0.257825 *   2.43600    1.000000    
    130 Ti    c    0.909017 *  0.398541 *  0.257804 *   2.43600    1.000000    
    131 Ti    c    0.742377 *  0.398539 *  0.257754 *   2.43600    1.000000    
    132 Ti    c    0.575633 *  0.398523 *  0.257725 *   2.43600    1.000000    
    133 Ti    c    0.408911 *  0.398540 *  0.257756 *   2.43600    1.000000    
    134 Ti    c    0.242270 *  0.065219 *  0.257931 *   2.43600    1.000000    
    135 Ti    c    0.075640 *  0.065205 *  0.257954 *   2.43600    1.000000    
    136 Ti    c    0.909029 *  0.065205 *  0.257923 *   2.43600    1.000000    
    137 Ti    c    0.742356 *  0.065197 *  0.257869 *   2.43600    1.000000    
    138 Ti    c    0.575631 *  0.065188 *  0.257848 *   2.43600    1.000000    
    139 Ti    c    0.408918 *  0.065188 *  0.257879 *   2.43600    1.000000    
    140 Ti    c    0.242091 *  0.731886 *  0.257617 *   2.43600    1.000000    
    141 Ti    c    0.075415 *  0.731902 *  0.257762 *   2.43600    1.000000    
    142 Ti    c    0.908945 *  0.731908 *  0.257838 *   2.43600    1.000000    
    143 Ti    c    0.742451 *  0.731894 *  0.257768 *   2.43600    1.000000    
    144 Ti    c    0.575819 *  0.731913 *  0.257635 *   2.43600    1.000000    
    145 Ti    c    0.409044 *  0.565230 *  0.231340 *   2.43600    1.000000    
    146 Ti    c    0.325551 *  0.731980 *  0.229081 *   2.43600    1.000000    
    147 Ti    c    0.242280 *  0.231827 *  0.231464 *   2.43600    1.000000    
    148 Ti    c    0.158937 *  0.398511 *  0.229269 *   2.43600    1.000000    
    149 Ti    c    0.075639 *  0.231830 *  0.231476 *   2.43600    1.000000    
    150 Ti    c    0.992298 *  0.398508 *  0.229271 *   2.43600    1.000000    
    151 Ti    c    0.908993 *  0.231838 *  0.231464 *   2.43600    1.000000    
    152 Ti    c    0.825654 *  0.398516 *  0.229244 *   2.43600    1.000000    
    153 Ti    c    0.742320 *  0.231838 *  0.231441 *   2.43600    1.000000    
    154 Ti    c    0.658989 *  0.398513 *  0.229210 *   2.43600    1.000000    
    155 Ti    c    0.575635 *  0.231850 *  0.231432 *   2.43600    1.000000    
    156 Ti    c    0.492298 *  0.398521 *  0.229211 *   2.43600    1.000000    
    157 Ti    c    0.408949 *  0.231849 *  0.231443 *   2.43600    1.000000    
    158 Ti    c    0.325602 *  0.398515 *  0.229244 *   2.43600    1.000000    
    159 Ti    c    0.242110 *  0.898570 *  0.231664 *   2.43600    1.000000    
    160 Ti    c    0.158938 *  0.065151 *  0.229412 *   2.43600    1.000000    
    161 Ti    c    0.075688 *  0.898568 *  0.231729 *   2.43600    1.000000    
    162 Ti    c    0.992356 *  0.065152 *  0.229406 *   2.43600    1.000000    
    163 Ti    c    0.909164 *  0.898582 *  0.231610 *   2.43600    1.000000    
    164 Ti    c    0.825717 *  0.065166 *  0.229358 *   2.43600    1.000000    
    165 Ti    c    0.742449 *  0.898580 *  0.231466 *   2.43600    1.000000    
    166 Ti    c    0.659002 *  0.065177 *  0.229318 *   2.43600    1.000000    
    167 Ti    c    0.575620 *  0.898570 *  0.231403 *   2.43600    1.000000    
    168 Ti    c    0.492257 *  0.065168 *  0.229328 *   2.43600    1.000000    
    169 Ti    c    0.408765 *  0.898575 *  0.231482 *   2.43600    1.000000    
    170 Ti    c    0.325555 *  0.065158 *  0.229376 *   2.43600    1.000000    
    171 Ti    c    0.242281 *  0.565245 *  0.231313 *   2.43600    1.000000    
    172 Ti    c    0.158855 *  0.731993 *  0.229179 *   2.43600    1.000000    
    173 Ti    c    0.075565 *  0.565245 *  0.231353 *   2.43600    1.000000    
    174 Ti    c    0.992268 *  0.731991 *  0.229279 *   2.43600    1.000000    
    175 Ti    c    0.908908 *  0.565232 *  0.231393 *   2.43600    1.000000    
    176 Ti    c    0.825699 *  0.731973 *  0.229277 *   2.43600    1.000000    
    177 Ti    c    0.742267 *  0.565233 *  0.231424 *   2.43600    1.000000    
    178 Ti    c    0.659058 *  0.731960 *  0.229179 *   2.43600    1.000000    
    179 Ti    c    0.575691 *  0.565234 *  0.231410 *   2.43600    1.000000    
    180 Ti    c    0.492322 *  0.731967 *  0.229082 *   2.43600    1.000000    
    181 O3    c    0.407186 *  0.731095 *  0.350609 *  -0.33800    1.000000    
    182 H22   c    0.399261 *  0.731942 *  0.358942 *   0.12000    1.000000    
    183 O2    c    0.242896 *  0.400211 *  0.350912 *  -1.21800    1.000000    
    184 O2    c    0.075745 *  0.399800 *  0.350848 *  -1.21800    1.000000    
    185 O2    c    0.908453 *  0.399354 *  0.350911 *  -1.21800    1.000000    
    186 O2    c    0.738230 *  0.400234 *  0.350596 *  -1.21800    1.000000    
    187 O3    c    0.577557 *  0.230241 *  0.356830 *  -0.33800    1.000000    
    188 H22   c    0.577341 *  0.199533 *  0.363433 *   0.12000    1.000000    
    189 O2    c    0.412340 *  0.401397 *  0.350623 *  -1.21800    1.000000    
    190 O2    c    0.241809 *  0.069185 *  0.350546 *  -1.21800    1.000000    
    191 O2    c    0.076496 *  0.069505 *  0.350585 *  -1.21800    1.000000    
    192 O2    c    0.908815 *  0.068105 *  0.350815 *  -1.21800    1.000000    
    193 O2    c    0.742125 *  0.064858 *  0.350756 *  -1.21800    1.000000    
    194 O2    c    0.575669 *  0.066552 *  0.350663 *  -1.21800    1.000000    
    195 O2    c    0.409191 *  0.064664 *  0.350711 *  -1.21800    1.000000    
    196 O2    c    0.246700 *  0.728215 *  0.349646 *  -1.21800    1.000000    
    197 O2    c    0.076358 *  0.727239 *  0.350690 *  -1.21800    1.000000    
    198 O2    c    0.908821 *  0.729401 *  0.350890 *  -1.21800    1.000000    
    199 O2    c    0.742199 *  0.732470 *  0.350947 *  -1.21800    1.000000    
    200 O2    c    0.571180 *  0.732017 *  0.350205 *  -1.21800    1.000000    
    201 O2    c    0.159342 *  0.172432 *  0.340980 *  -1.21800    1.000000    
    202 O2    c    0.991453 *  0.172486 *  0.341255 *  -1.21800    1.000000    
    203 O2    c    0.824708 *  0.172184 *  0.341280 *  -1.21800    1.000000    
    204 O2    c    0.660208 *  0.171330 *  0.341024 *  -1.21800    1.000000    
    205 O2    c    0.491285 *  0.171642 *  0.341067 *  -1.21800    1.000000    
    206 O2    c    0.327276 *  0.172513 *  0.341295 *  -1.21800    1.000000    
    207 O2    c    0.160561 *  0.832325 *  0.339593 *  -1.21800    1.000000    
    208 O2    c    0.989834 *  0.835810 *  0.341265 *  -1.21800    1.000000    
    209 O2    c    0.825327 *  0.837568 *  0.341454 *  -1.21800    1.000000    
    210 O2    c    0.658069 *  0.836988 *  0.341461 *  -1.21800    1.000000    
    211 O2    c    0.489888 *  0.834430 *  0.341271 *  -1.21800    1.000000    
    212 O2    c    0.332552 *  0.832552 *  0.340878 *  -1.21800    1.000000    
    213 O2    c    0.992123 *  0.504686 *  0.341271 *  -1.21800    1.000000    
    214 O2    c    0.488691 *  0.501926 *  0.339810 *  -1.21800    1.000000    
    215 O2    c    0.325402 *  0.506091 *  0.341376 *  -1.21800    1.000000    
    216 O2    c    0.159453 *  0.505416 *  0.341267 *  -1.21800    1.000000    
    217 O2    c    0.825146 *  0.504411 *  0.341376 *  -1.21800    1.000000    
    218 O2    c    0.662955 *  0.501086 *  0.339789 *  -1.21800    1.000000    
    219 O2    c    0.329047 *  0.628934 *  0.340855 *  -1.21800    1.000000    
    220 O2    c    0.159552 *  0.293266 *  0.341449 *  -1.21800    1.000000    
    221 O2    c    0.992167 *  0.293396 *  0.341410 *  -1.21800    1.000000    
    222 O2    c    0.824708 *  0.293504 *  0.341624 *  -1.21800    1.000000    
    223 O2    c    0.657683 *  0.295167 *  0.341255 *  -1.21800    1.000000    
    224 O2    c    0.493798 *  0.295500 *  0.341429 *  -1.21800    1.000000    
    225 O2    c    0.326517 *  0.293762 *  0.341607 *  -1.21800    1.000000    
    226 O2    c    0.989642 *  0.961277 *  0.341216 *  -1.21800    1.000000    
    227 O2    c    0.493244 *  0.957672 *  0.341398 *  -1.21800    1.000000    
    228 O2    c    0.327997 *  0.960413 *  0.340937 *  -1.21800    1.000000    
    229 O2    c    0.159921 *  0.626109 *  0.341039 *  -1.21800    1.000000    
    230 O2    c    0.991512 *  0.625456 *  0.341206 *  -1.21800    1.000000    
    231 O2    c    0.824792 *  0.625897 *  0.341302 *  -1.21800    1.000000    
    232 O2    c    0.659366 *  0.626476 *  0.341472 *  -1.21800    1.000000    
    233 O2    c    0.487814 *  0.628932 *  0.341419 *  -1.21800    1.000000    
    234 O2    c    0.159610 *  0.964143 *  0.339512 *  -1.21800    1.000000    
    235 O2    c    0.825365 *  0.959220 *  0.341425 *  -1.21800    1.000000    
    236 O2    c    0.658470 *  0.958395 *  0.341331 *  -1.21800    1.000000    
    237 O2    c    0.409872 *  0.730744 *  0.330594 *  -1.21800    1.000000    
    238 O2    c    0.243114 *  0.399125 *  0.330190 *  -1.21800    1.000000    
    239 O2    c    0.075957 *  0.398909 *  0.330152 *  -1.21800    1.000000    
    240 O2    c    0.908556 *  0.398680 *  0.330192 *  -1.21800    1.000000    
    241 O2    c    0.744224 *  0.396236 *  0.329818 *  -1.21800    1.000000    
    242 O2    c    0.575355 *  0.396066 *  0.330416 *  -1.21800    1.000000    
    243 O2    c    0.407580 *  0.397340 *  0.329937 *  -1.21800    1.000000    
    244 O2    c    0.244662 *  0.068884 *  0.329884 *  -1.21800    1.000000    
    245 O2    c    0.074043 *  0.068707 *  0.329917 *  -1.21800    1.000000    
    246 O2    c    0.907578 *  0.066112 *  0.330091 *  -1.21800    1.000000    
    247 O2    c    0.741891 *  0.064674 *  0.330080 *  -1.21800    1.000000    
    248 O2    c    0.575577 *  0.064744 *  0.330061 *  -1.21800    1.000000    
    249 O2    c    0.410403 *  0.064815 *  0.330028 *  -1.21800    1.000000    
    250 O2    c    0.239920 *  0.728313 *  0.328978 *  -1.21800    1.000000    
    251 O2    c    0.073662 *  0.728646 *  0.329931 *  -1.21800    1.000000    
    252 O2    c    0.907548 *  0.731259 *  0.330113 *  -1.21800    1.000000    
    253 O2    c    0.741934 *  0.731599 *  0.330184 *  -1.21800    1.000000    
    254 O2    c    0.578004 *  0.732494 *  0.329585 *  -1.21800    1.000000    
    255 O2    c    0.407318 *  0.566362 *  0.323265 *  -1.21800    1.000000    
    256 O2    c    0.243149 *  0.233015 *  0.323598 *  -1.21800    1.000000    
    257 O2    c    0.075516 *  0.232914 *  0.323594 *  -1.21800    1.000000    
    258 O2    c    0.908345 *  0.232888 *  0.323624 *  -1.21800    1.000000    
    259 O2    c    0.742271 *  0.233185 *  0.323599 *  -1.21800    1.000000    
    260 O2    c    0.575578 *  0.232287 *  0.323740 *  -1.21800    1.000000    
    261 O2    c    0.409239 *  0.233457 *  0.323612 *  -1.21800    1.000000    
    262 O2    c    0.246511 *  0.897113 *  0.324222 *  -1.21800    1.000000    
    263 O2    c    0.072730 *  0.898182 *  0.324290 *  -1.21800    1.000000    
    264 O2    c    0.906877 *  0.898458 *  0.323675 *  -1.21800    1.000000    
    265 O2    c    0.741486 *  0.898103 *  0.323631 *  -1.21800    1.000000    
    266 O2    c    0.575272 *  0.897104 *  0.323575 *  -1.21800    1.000000    
    267 O2    c    0.411312 *  0.898113 *  0.323460 *  -1.21800    1.000000    
    268 O2    c    0.243201 *  0.565960 *  0.323425 *  -1.21800    1.000000    
    269 O2    c    0.075847 *  0.565296 *  0.323497 *  -1.21800    1.000000    
    270 O2    c    0.908566 *  0.564987 *  0.323508 *  -1.21800    1.000000    
    271 O2    c    0.743773 *  0.566395 *  0.323446 *  -1.21800    1.000000    
    272 O2    c    0.574790 *  0.566998 *  0.324214 *  -1.21800    1.000000    
    273 O2    c    0.326291 *  0.667166 *  0.312973 *  -1.21800    1.000000    
    274 O2    c    0.325858 *  0.464318 *  0.313022 *  -1.21800    1.000000    
    275 O2    c    0.159158 *  0.333431 *  0.313195 *  -1.21800    1.000000    
    276 O2    c    0.159176 *  0.131298 *  0.313046 *  -1.21800    1.000000    
    277 O2    c    0.992253 *  0.333406 *  0.313180 *  -1.21800    1.000000    
    278 O2    c    0.991730 *  0.131390 *  0.313028 *  -1.21800    1.000000    
    279 O2    c    0.825936 *  0.333116 *  0.312934 *  -1.21800    1.000000    
    280 O2    c    0.825052 *  0.131109 *  0.313140 *  -1.21800    1.000000    
    281 O2    c    0.658669 *  0.333469 *  0.313242 *  -1.21800    1.000000    
    282 O2    c    0.658848 *  0.130857 *  0.313200 *  -1.21800    1.000000    
    283 O2    c    0.492531 *  0.333464 *  0.313219 *  -1.21800    1.000000    
    284 O2    c    0.492596 *  0.130947 *  0.313166 *  -1.21800    1.000000    
    285 O2    c    0.325544 *  0.333303 *  0.313005 *  -1.21800    1.000000    
    286 O2    c    0.326647 *  0.131321 *  0.313010 *  -1.21800    1.000000    
    287 O2    c    0.159508 *  0.000257 *  0.313398 *  -1.21800    1.000000    
    288 O2    c    0.158285 *  0.796972 *  0.312998 *  -1.21800    1.000000    
    289 O2    c    0.991779 *  0.000237 *  0.313201 *  -1.21800    1.000000    
    290 O2    c    0.991558 *  0.797024 *  0.313155 *  -1.21800    1.000000    
    291 O2    c    0.825102 *  0.999829 *  0.313126 *  -1.21800    1.000000    
    292 O2    c    0.825056 *  0.797240 *  0.313132 *  -1.21800    1.000000    
    293 O2    c    0.658564 *  0.999439 *  0.313147 *  -1.21800    1.000000    
    294 O2    c    0.659326 *  0.797289 *  0.312896 *  -1.21800    1.000000    
    295 O2    c    0.492741 *  0.999439 *  0.313048 *  -1.21800    1.000000    
    296 O2    c    0.492236 *  0.796049 *  0.313234 *  -1.21800    1.000000    
    297 O2    c    0.326375 *  0.999849 *  0.313106 *  -1.21800    1.000000    
    298 O2    c    0.326650 *  0.795615 *  0.313399 *  -1.21800    1.000000    
    299 O2    c    0.158206 *  0.665841 *  0.312551 *  -1.21800    1.000000    
    300 O2    c    0.159395 *  0.464275 *  0.313161 *  -1.21800    1.000000    
    301 O2    c    0.991616 *  0.666013 *  0.312957 *  -1.21800    1.000000    
    302 O2    c    0.992301 *  0.464099 *  0.313186 *  -1.21800    1.000000    
    303 O2    c    0.825587 *  0.666386 *  0.313009 *  -1.21800    1.000000    
    304 O2    c    0.825514 *  0.464054 *  0.313033 *  -1.21800    1.000000    
    305 O2    c    0.659187 *  0.666180 *  0.313014 *  -1.21800    1.000000    
    306 O2    c    0.658319 *  0.463289 *  0.313453 *  -1.21800    1.000000    
    307 O2    c    0.492220 *  0.667142 *  0.313369 *  -1.21800    1.000000    
    308 O2    c    0.492622 *  0.463482 *  0.313358 *  -1.21800    1.000000    
    309 O2    c    0.410255 *  0.565619 *  0.302151 *  -1.21800    1.000000    
    310 O2    c    0.242313 *  0.232202 *  0.302217 *  -1.21800    1.000000    
    311 O2    c    0.075709 *  0.232465 *  0.302233 *  -1.21800    1.000000    
    312 O2    c    0.908958 *  0.232121 *  0.302211 *  -1.21800    1.000000    
    313 O2    c    0.741860 *  0.232257 *  0.302234 *  -1.21800    1.000000    
    314 O2    c    0.575712 *  0.232391 *  0.302290 *  -1.21800    1.000000    
    315 O2    c    0.409482 *  0.232451 *  0.302230 *  -1.21800    1.000000    
    316 O2    c    0.241574 *  0.897600 *  0.302761 *  -1.21800    1.000000    
    317 O2    c    0.076594 *  0.898955 *  0.302814 *  -1.21800    1.000000    
    318 O2    c    0.909552 *  0.898568 *  0.302386 *  -1.21800    1.000000    
    319 O2    c    0.742353 *  0.898749 *  0.302214 *  -1.21800    1.000000    
    320 O2    c    0.575692 *  0.897750 *  0.302165 *  -1.21800    1.000000    
    321 O2    c    0.408365 *  0.897156 *  0.302263 *  -1.21800    1.000000    
    322 O2    c    0.242251 *  0.565613 *  0.302033 *  -1.21800    1.000000    
    323 O2    c    0.075358 *  0.564460 *  0.302101 *  -1.21800    1.000000    
    324 O2    c    0.908970 *  0.564855 *  0.302109 *  -1.21800    1.000000    
    325 O2    c    0.741073 *  0.564293 *  0.302249 *  -1.21800    1.000000    
    326 O2    c    0.575615 *  0.564909 *  0.302515 *  -1.21800    1.000000    
    327 O2    c    0.409213 *  0.731667 *  0.296116 *  -1.21800    1.000000    
    328 O2    c    0.242464 *  0.398859 *  0.296455 *  -1.21800    1.000000    
    329 O2    c    0.075735 *  0.398777 *  0.296482 *  -1.21800    1.000000    
    330 O2    c    0.908904 *  0.398815 *  0.296446 *  -1.21800    1.000000    
    331 O2    c    0.741740 *  0.398655 *  0.296349 *  -1.21800    1.000000    
    332 O2    c    0.575639 *  0.398661 *  0.296375 *  -1.21800    1.000000    
    333 O2    c    0.409434 *  0.398757 *  0.296381 *  -1.21800    1.000000    
    334 O2    c    0.242564 *  0.065466 *  0.296492 *  -1.21800    1.000000    
    335 O2    c    0.075720 *  0.065445 *  0.296514 *  -1.21800    1.000000    
    336 O2    c    0.908595 *  0.065495 *  0.296504 *  -1.21800    1.000000    
    337 O2    c    0.741935 *  0.065295 *  0.296483 *  -1.21800    1.000000    
    338 O2    c    0.575727 *  0.065340 *  0.296468 *  -1.21800    1.000000    
    339 O2    c    0.409402 *  0.065274 *  0.296465 *  -1.21800    1.000000    
    340 O2    c    0.243016 *  0.731841 *  0.296029 *  -1.21800    1.000000    
    341 O2    c    0.075743 *  0.731735 *  0.296333 *  -1.21800    1.000000    
    342 O2    c    0.908687 *  0.731811 *  0.296444 *  -1.21800    1.000000    
    343 O2    c    0.741794 *  0.731688 *  0.296402 *  -1.21800    1.000000    
    344 O2    c    0.575016 *  0.731618 *  0.296207 *  -1.21800    1.000000    
    345 O2    c    0.325876 *  0.500609 *  0.285675 *  -1.21800    1.000000    
    346 O2    c    0.325978 *  0.629949 *  0.285542 *  -1.21800    1.000000    
    347 O2    c    0.159052 *  0.167229 *  0.285663 *  -1.21800    1.000000    
    348 O2    c    0.159103 *  0.296877 *  0.285645 *  -1.21800    1.000000    
    349 O2    c    0.992279 *  0.167228 *  0.285671 *  -1.21800    1.000000    
    350 O2    c    0.992281 *  0.296846 *  0.285652 *  -1.21800    1.000000    
    351 O2    c    0.825428 *  0.167221 *  0.285690 *  -1.21800    1.000000    
    352 O2    c    0.825494 *  0.296792 *  0.285652 *  -1.21800    1.000000    
    353 O2    c    0.658839 *  0.167164 *  0.285678 *  -1.21800    1.000000    
    354 O2    c    0.658828 *  0.296824 *  0.285631 *  -1.21800    1.000000    
    355 O2    c    0.492444 *  0.167163 *  0.285685 *  -1.21800    1.000000    
    356 O2    c    0.492419 *  0.296847 *  0.285637 *  -1.21800    1.000000    
    357 O2    c    0.325885 *  0.167229 *  0.285693 *  -1.21800    1.000000    
    358 O2    c    0.325798 *  0.296839 *  0.285661 *  -1.21800    1.000000    
    359 O2    c    0.159010 *  0.833395 *  0.285680 *  -1.21800    1.000000    
    360 O2    c    0.159168 *  0.963561 *  0.285819 *  -1.21800    1.000000    
    361 O2    c    0.992571 *  0.833719 *  0.285823 *  -1.21800    1.000000    
    362 O2    c    0.992528 *  0.963455 *  0.285856 *  -1.21800    1.000000    
    363 O2    c    0.825637 *  0.833732 *  0.285734 *  -1.21800    1.000000    
    364 O2    c    0.825665 *  0.963344 *  0.285735 *  -1.21800    1.000000    
    365 O2    c    0.658921 *  0.833607 *  0.285593 *  -1.21800    1.000000    
    366 O2    c    0.658839 *  0.963261 *  0.285665 *  -1.21800    1.000000    
    367 O2    c    0.492225 *  0.833566 *  0.285606 *  -1.21800    1.000000    
    368 O2    c    0.492234 *  0.963063 *  0.285761 *  -1.21800    1.000000    
    369 O2    c    0.325495 *  0.833459 *  0.285687 *  -1.21800    1.000000    
    370 O2    c    0.325485 *  0.963165 *  0.285875 *  -1.21800    1.000000    
    371 O2    c    0.159078 *  0.500461 *  0.285564 *  -1.21800    1.000000    
    372 O2    c    0.158993 *  0.630009 *  0.285466 *  -1.21800    1.000000    
    373 O2    c    0.992225 *  0.500343 *  0.285546 *  -1.21800    1.000000    
    374 O2    c    0.992166 *  0.629956 *  0.285572 *  -1.21800    1.000000    
    375 O2    c    0.825383 *  0.500379 *  0.285639 *  -1.21800    1.000000    
    376 O2    c    0.825279 *  0.629808 *  0.285704 *  -1.21800    1.000000    
    377 O2    c    0.658570 *  0.500223 *  0.285621 *  -1.21800    1.000000    
    378 O2    c    0.658623 *  0.630026 *  0.285623 *  -1.21800    1.000000    
    379 O2    c    0.492567 *  0.500352 *  0.285646 *  -1.21800    1.000000    
    380 O2    c    0.492588 *  0.630102 *  0.285571 *  -1.21800    1.000000    
    381 O2    c    0.409112 *  0.731823 *  0.274543 *  -1.21800    1.000000    
    382 O2    c    0.242377 *  0.398787 *  0.274820 *  -1.21800    1.000000    
    383 O2    c    0.075690 *  0.398591 *  0.274835 *  -1.21800    1.000000    
    384 O2    c    0.908992 *  0.398568 *  0.274812 *  -1.21800    1.000000    
    385 O2    c    0.742411 *  0.398543 *  0.274757 *  -1.21800    1.000000    
    386 O2    c    0.575556 *  0.398464 *  0.274733 *  -1.21800    1.000000    
    387 O2    c    0.408841 *  0.398754 *  0.274775 *  -1.21800    1.000000    
    388 O2    c    0.242470 *  0.065397 *  0.274909 *  -1.21800    1.000000    
    389 O2    c    0.075612 *  0.065456 *  0.274923 *  -1.21800    1.000000    
    390 O2    c    0.908964 *  0.065270 *  0.274913 *  -1.21800    1.000000    
    391 O2    c    0.742295 *  0.065196 *  0.274876 *  -1.21800    1.000000    
    392 O2    c    0.575574 *  0.065026 *  0.274861 *  -1.21800    1.000000    
    393 O2    c    0.408989 *  0.064978 *  0.274886 *  -1.21800    1.000000    
    394 O2    c    0.242090 *  0.731446 *  0.274563 *  -1.21800    1.000000    
    395 O2    c    0.075101 *  0.731602 *  0.274728 *  -1.21800    1.000000    
    396 O2    c    0.908778 *  0.731794 *  0.274838 *  -1.21800    1.000000    
    397 O2    c    0.742552 *  0.731831 *  0.274776 *  -1.21800    1.000000    
    398 O2    c    0.575975 *  0.732055 *  0.274631 *  -1.21800    1.000000    
    399 O2    c    0.408944 *  0.565231 *  0.269027 *  -1.21800    1.000000    
    400 O2    c    0.242457 *  0.232012 *  0.269121 *  -1.21800    1.000000    
    401 O2    c    0.075652 *  0.232037 *  0.269129 *  -1.21800    1.000000    
    402 O2    c    0.908860 *  0.231989 *  0.269119 *  -1.21800    1.000000    
    403 O2    c    0.742205 *  0.231981 *  0.269108 *  -1.21800    1.000000    
    404 O2    c    0.575621 *  0.231965 *  0.269111 *  -1.21800    1.000000    
    405 O2    c    0.409073 *  0.231995 *  0.269112 *  -1.21800    1.000000    
    406 O2    c    0.242703 *  0.898450 *  0.269386 *  -1.21800    1.000000    
    407 O2    c    0.075538 *  0.898536 *  0.269448 *  -1.21800    1.000000    
    408 O2    c    0.908719 *  0.898474 *  0.269275 *  -1.21800    1.000000    
    409 O2    c    0.742103 *  0.898482 *  0.269123 *  -1.21800    1.000000    
    410 O2    c    0.575544 *  0.898445 *  0.269061 *  -1.21800    1.000000    
    411 O2    c    0.409209 *  0.898426 *  0.269158 *  -1.21800    1.000000    
    412 O2    c    0.242514 *  0.565218 *  0.268964 *  -1.21800    1.000000    
    413 O2    c    0.075693 *  0.565207 *  0.269004 *  -1.21800    1.000000    
    414 O2    c    0.908848 *  0.565243 *  0.269043 *  -1.21800    1.000000    
    415 O2    c    0.742228 *  0.565197 *  0.269112 *  -1.21800    1.000000    
    416 O2    c    0.575499 *  0.565223 *  0.269131 *  -1.21800    1.000000    
    417 O2    c    0.325727 *  0.666364 *  0.257992 *  -1.21800    1.000000    
    418 O2    c    0.325699 *  0.464128 *  0.258090 *  -1.21800    1.000000    
    419 O2    c    0.159031 *  0.333082 *  0.258161 *  -1.21800    1.000000    
    420 O2    c    0.159022 *  0.130817 *  0.258224 *  -1.21800    1.000000    
    421 O2    c    0.992299 *  0.333053 *  0.258152 *  -1.21800    1.000000    
    422 O2    c    0.992274 *  0.130820 *  0.258216 *  -1.21800    1.000000    
    423 O2    c    0.825609 *  0.333036 *  0.258128 *  -1.21800    1.000000    
    424 O2    c    0.825580 *  0.130776 *  0.258208 *  -1.21800    1.000000    
    425 O2    c    0.658945 *  0.333054 *  0.258124 *  -1.21800    1.000000    
    426 O2    c    0.658918 *  0.130739 *  0.258204 *  -1.21800    1.000000    
    427 O2    c    0.492280 *  0.333070 *  0.258129 *  -1.21800    1.000000    
    428 O2    c    0.492315 *  0.130733 *  0.258209 *  -1.21800    1.000000    
    429 O2    c    0.325677 *  0.333080 *  0.258144 *  -1.21800    1.000000    
    430 O2    c    0.325741 *  0.130784 *  0.258213 *  -1.21800    1.000000    
    431 O2    c    0.159042 *  0.999702 *  0.258337 *  -1.21800    1.000000    
    432 O2    c    0.158875 *  0.797322 *  0.258192 *  -1.21800    1.000000    
    433 O2    c    0.992305 *  0.999711 *  0.258308 *  -1.21800    1.000000    
    434 O2    c    0.992185 *  0.797400 *  0.258207 *  -1.21800    1.000000    
    435 O2    c    0.825597 *  0.999700 *  0.258235 *  -1.21800    1.000000    
    436 O2    c    0.825601 *  0.797415 *  0.258154 *  -1.21800    1.000000    
    437 O2    c    0.658922 *  0.999678 *  0.258184 *  -1.21800    1.000000    
    438 O2    c    0.659042 *  0.797393 *  0.258071 *  -1.21800    1.000000    
    439 O2    c    0.492285 *  0.999639 *  0.258186 *  -1.21800    1.000000    
    440 O2    c    0.492352 *  0.797335 *  0.258039 *  -1.21800    1.000000    
    441 O2    c    0.325686 *  0.999647 *  0.258260 *  -1.21800    1.000000    
    442 O2    c    0.325656 *  0.797283 *  0.258102 *  -1.21800    1.000000    
    443 O2    c    0.158861 *  0.666299 *  0.258011 *  -1.21800    1.000000    
    444 O2    c    0.159026 *  0.464110 *  0.258105 *  -1.21800    1.000000    
    445 O2    c    0.992148 *  0.666275 *  0.258073 *  -1.21800    1.000000    
    446 O2    c    0.992294 *  0.464077 *  0.258120 *  -1.21800    1.000000    
    447 O2    c    0.825571 *  0.666298 *  0.258116 *  -1.21800    1.000000    
    448 O2    c    0.825591 *  0.464069 *  0.258123 *  -1.21800    1.000000    
    449 O2    c    0.659004 *  0.666348 *  0.258099 *  -1.21800    1.000000    
    450 O2    c    0.658907 *  0.464046 *  0.258138 *  -1.21800    1.000000    
    451 O2    c    0.492396 *  0.666396 *  0.258042 *  -1.21800    1.000000    
    452 O2    c    0.492297 *  0.464081 *  0.258116 *  -1.21800    1.000000    
    453 O2    c    0.409215 *  0.565310 *  0.247634 *  -1.21800    1.000000    
    454 O2    c    0.242347 *  0.231947 *  0.247746 *  -1.21800    1.000000    
    455 O2    c    0.075668 *  0.231959 *  0.247755 *  -1.21800    1.000000    
    456 O2    c    0.908957 *  0.231915 *  0.247744 *  -1.21800    1.000000    
    457 O2    c    0.742250 *  0.231866 *  0.247727 *  -1.21800    1.000000    
    458 O2    c    0.575620 *  0.231882 *  0.247723 *  -1.21800    1.000000    
    459 O2    c    0.409009 *  0.231918 *  0.247729 *  -1.21800    1.000000    
    460 O2    c    0.242005 *  0.898414 *  0.247949 *  -1.21800    1.000000    
    461 O2    c    0.075795 *  0.898533 *  0.248007 *  -1.21800    1.000000    
    462 O2    c    0.909286 *  0.898622 *  0.247888 *  -1.21800    1.000000    
    463 O2    c    0.742488 *  0.898613 *  0.247751 *  -1.21800    1.000000    
    464 O2    c    0.575589 *  0.898507 *  0.247694 *  -1.21800    1.000000    
    465 O2    c    0.408635 *  0.898400 *  0.247775 *  -1.21800    1.000000    
    466 O2    c    0.242364 *  0.565278 *  0.247600 *  -1.21800    1.000000    
    467 O2    c    0.075538 *  0.565145 *  0.247633 *  -1.21800    1.000000    
    468 O2    c    0.908796 *  0.565095 *  0.247672 *  -1.21800    1.000000    
    469 O2    c    0.742120 *  0.565150 *  0.247711 *  -1.21800    1.000000    
    470 O2    c    0.575716 *  0.565237 *  0.247704 *  -1.21800    1.000000    
    471 O2    c    0.409001 *  0.731872 *  0.241016 *  -1.21800    1.000000    
    472 O2    c    0.242384 *  0.398514 *  0.241194 *  -1.21800    1.000000    
    473 O2    c    0.075653 *  0.398528 *  0.241209 *  -1.21800    1.000000    
    474 O2    c    0.908895 *  0.398545 *  0.241195 *  -1.21800    1.000000    
    475 O2    c    0.742193 *  0.398567 *  0.241167 *  -1.21800    1.000000    
    476 O2    c    0.575616 *  0.398551 *  0.241150 *  -1.21800    1.000000    
    477 O2    c    0.409043 *  0.398519 *  0.241165 *  -1.21800    1.000000    
    478 O2    c    0.242386 *  0.065219 *  0.241328 *  -1.21800    1.000000    
    479 O2    c    0.075667 *  0.065188 *  0.241345 *  -1.21800    1.000000    
    480 O2    c    0.908906 *  0.065224 *  0.241314 *  -1.21800    1.000000    
    481 O2    c    0.742216 *  0.065252 *  0.241269 *  -1.21800    1.000000    
    482 O2    c    0.575617 *  0.065277 *  0.241253 *  -1.21800    1.000000    
    483 O2    c    0.409033 *  0.065262 *  0.241282 *  -1.21800    1.000000    
    484 O2    c    0.242427 *  0.731945 *  0.241069 *  -1.21800    1.000000    
    485 O2    c    0.075707 *  0.731962 *  0.241171 *  -1.21800    1.000000    
    486 O2    c    0.908904 *  0.731906 *  0.241220 *  -1.21800    1.000000    
    487 O2    c    0.742165 *  0.731838 *  0.241169 *  -1.21800    1.000000    
    488 O2    c    0.575533 *  0.731824 *  0.241072 *  -1.21800    1.000000    
    489 O2    c    0.325708 *  0.504586 *  0.229950 *  -1.21800    1.000000    
    490 O2    c    0.158986 *  0.171186 *  0.230085 *  -1.21800    1.000000    
    491 O2    c    0.992306 *  0.171185 *  0.230079 *  -1.21800    1.000000    
    492 O2    c    0.825631 *  0.171180 *  0.230046 *  -1.21800    1.000000    
    493 O2    c    0.658946 *  0.171178 *  0.230017 *  -1.21800    1.000000    
    494 O2    c    0.492293 *  0.171176 *  0.230021 *  -1.21800    1.000000    
    495 O2    c    0.325658 *  0.171184 *  0.230055 *  -1.21800    1.000000    
    496 O2    c    0.158911 *  0.837853 *  0.230109 *  -1.21800    1.000000    
    497 O2    c    0.992456 *  0.837890 *  0.230145 *  -1.21800    1.000000    
    498 O2    c    0.825816 *  0.837929 *  0.230081 *  -1.21800    1.000000    
    499 O2    c    0.659030 *  0.837940 *  0.229986 *  -1.21800    1.000000    
    500 O2    c    0.492164 *  0.837934 *  0.229952 *  -1.21800    1.000000    
    501 O2    c    0.325409 *  0.837892 *  0.230015 *  -1.21800    1.000000    
    502 O2    c    0.158941 *  0.504574 *  0.229944 *  -1.21800    1.000000    
    503 O2    c    0.992220 *  0.504557 *  0.229955 *  -1.21800    1.000000    
    504 O2    c    0.825537 *  0.504548 *  0.229970 *  -1.21800    1.000000    
    505 O2    c    0.658951 *  0.504540 *  0.229968 *  -1.21800    1.000000    
    506 O2    c    0.492401 *  0.504558 *  0.229958 *  -1.21800    1.000000    
    507 O2    c    0.325722 *  0.625896 *  0.229867 *  -1.21800    1.000000    
    508 O2    c    0.158987 *  0.292522 *  0.230010 *  -1.21800    1.000000    
    509 O2    c    0.992311 *  0.292512 *  0.230015 *  -1.21800    1.000000    
    510 O2    c    0.825628 *  0.292508 *  0.230005 *  -1.21800    1.000000    
    511 O2    c    0.658958 *  0.292506 *  0.229988 *  -1.21800    1.000000    
    512 O2    c    0.492290 *  0.292515 *  0.229983 *  -1.21800    1.000000    
    513 O2    c    0.325636 *  0.292521 *  0.229994 *  -1.21800    1.000000    
    514 O2    c    0.158910 *  0.959271 *  0.230220 *  -1.21800    1.000000    
    515 O2    c    0.992470 *  0.959263 *  0.230201 *  -1.21800    1.000000    
    516 O2    c    0.825820 *  0.959233 *  0.230106 *  -1.21800    1.000000    
    517 O2    c    0.659026 *  0.959205 *  0.230039 *  -1.21800    1.000000    
    518 O2    c    0.492173 *  0.959191 *  0.230067 *  -1.21800    1.000000    
    519 O2    c    0.325407 *  0.959223 *  0.230159 *  -1.21800    1.000000    
    520 O2    c    0.158939 *  0.625897 *  0.229909 *  -1.21800    1.000000    
    521 O2    c    0.992209 *  0.625900 *  0.229969 *  -1.21800    1.000000    
    522 O2    c    0.825540 *  0.625906 *  0.229988 *  -1.21800    1.000000    
    523 O2    c    0.658948 *  0.625929 *  0.229944 *  -1.21800    1.000000    
    524 O2    c    0.492396 *  0.625923 *  0.229883 *  -1.21800    1.000000    
    525 O2    c    0.408941 *  0.732078 *  0.220371 *  -1.21800    1.000000    
    526 O2    c    0.242243 *  0.398632 *  0.220535 *  -1.21800    1.000000    
    527 O2    c    0.075618 *  0.398521 *  0.220547 *  -1.21800    1.000000    
    528 O2    c    0.909008 *  0.398478 *  0.220535 *  -1.21800    1.000000    
    529 O2    c    0.742365 *  0.398425 *  0.220507 *  -1.21800    1.000000    
    530 O2    c    0.575639 *  0.398445 *  0.220493 *  -1.21800    1.000000    
    531 O2    c    0.408905 *  0.398600 *  0.220509 *  -1.21800    1.000000    
    532 O2    c    0.242196 *  0.065189 *  0.220667 *  -1.21800    1.000000    
    533 O2    c    0.075665 *  0.065268 *  0.220680 *  -1.21800    1.000000    
    534 O2    c    0.909116 *  0.065146 *  0.220655 *  -1.21800    1.000000    
    535 O2    c    0.742417 *  0.065085 *  0.220615 *  -1.21800    1.000000    
    536 O2    c    0.575604 *  0.064985 *  0.220601 *  -1.21800    1.000000    
    537 O2    c    0.408826 *  0.064965 *  0.220629 *  -1.21800    1.000000    
    538 O2    c    0.242053 *  0.731839 *  0.220416 *  -1.21800    1.000000    
    539 O2    c    0.075398 *  0.731856 *  0.220509 *  -1.21800    1.000000    
    540 O2    c    0.908982 *  0.732022 *  0.220556 *  -1.21800    1.000000    
    541 O2    c    0.742536 *  0.732137 *  0.220510 *  -1.21800    1.000000    
    542 O2    c    0.575845 *  0.732223 *  0.220419 *  -1.21800    1.000000    
    543 O176  c    0.576915 *  0.527463 *  0.356254 *  -1.08000    1.000000    
    544 O177  c    0.109309 *  0.918825 *  0.417695 *  -1.08000    1.000000    
    545 O176  c    0.577332 *  0.415747 *  0.351935 *  -1.08000    1.000000    
    546 O177  c    0.233484 *  0.917720 *  0.417478 *  -1.08000    1.000000    
    547 O176  c    0.225596 *  0.897546 *  0.356789 *  -1.08000    1.000000    
    548 O177  c    0.652915 *  0.481408 *  0.414802 *  -1.08000    1.000000    
    549 O176  c    0.100506 *  0.898701 *  0.356839 *  -1.08000    1.000000    
    550 O177  c    0.656163 *  0.368900 *  0.413596 *  -1.08000    1.000000    
    551 O171  c    0.170383 *  0.922191 *  0.443108 *  -2.00000    1.000000    
    552 O171  c    0.671122 *  0.422431 *  0.440090 *  -2.00000    1.000000    
    553 O170  c    0.257163 *  0.781773 *  0.449490 *  -1.08000    1.000000    
    554 O170  c    0.019499 *  0.005694 *  0.435928 *  -1.08000    1.000000    
    555 O170  c    0.323942 *  0.839426 *  0.436793 *  -1.08000    1.000000    
    556 O170  c    0.082311 *  0.062365 *  0.449212 *  -1.08000    1.000000    
    557 O170  c    0.321762 *  0.005875 *  0.436055 *  -1.08000    1.000000    
    558 O170  c    0.017943 *  0.839418 *  0.436408 *  -1.08000    1.000000    
    559 O170  c    0.258550 *  0.061986 *  0.449366 *  -1.08000    1.000000    
    560 O170  c    0.082332 *  0.782172 *  0.449438 *  -1.08000    1.000000    
    561 O170  c    0.172237 *  0.979217 *  0.468585 *  -1.08000    1.000000    
    562 O170  c    0.639053 *  0.419734 *  0.527973 *  -1.08000    1.000000    
    563 O170  c    0.172300 *  0.866104 *  0.468575 *  -1.08000    1.000000    
    564 O170  c    0.762981 *  0.419910 *  0.527329 *  -1.08000    1.000000    
    565 O170  c    0.739655 *  0.420250 *  0.465729 *  -1.08000    1.000000    
    566 O170  c    0.200790 *  0.976954 *  0.529150 *  -1.08000    1.000000    
    567 O170  c    0.615994 *  0.420037 *  0.466584 *  -1.08000    1.000000    
    568 O170  c    0.200793 *  0.864017 *  0.529066 *  -1.08000    1.000000    
    569 O170  c    0.521290 *  0.338375 *  0.447519 *  -1.08000    1.000000    
    570 O170  c    0.758736 *  0.561022 *  0.433246 *  -1.08000    1.000000    
    571 O170  c    0.583980 *  0.282907 *  0.434046 *  -1.08000    1.000000    
    572 O170  c    0.823212 *  0.504404 *  0.446364 *  -1.08000    1.000000    
    573 O170  c    0.758407 *  0.284756 *  0.432504 *  -1.08000    1.000000    
    574 O170  c    0.584918 *  0.564096 *  0.435339 *  -1.08000    1.000000    
    575 O170  c    0.822736 *  0.338807 *  0.445953 *  -1.08000    1.000000    
    576 O170  c    0.520467 *  0.504346 *  0.448059 *  -1.08000    1.000000    
    577 O171  c    0.704158 *  0.420040 *  0.553498 *  -2.00000    1.000000    
    578 O171  c    0.204944 *  0.920084 *  0.554738 *  -2.00000    1.000000    
    579 O170  c    0.791845 *  0.281648 *  0.559922 *  -1.08000    1.000000    
    580 O170  c    0.550879 *  0.503130 *  0.547306 *  -1.08000    1.000000    
    581 O170  c    0.856711 *  0.336700 *  0.546661 *  -1.08000    1.000000    
    582 O170  c    0.617411 *  0.558457 *  0.560333 *  -1.08000    1.000000    
    583 O170  c    0.856580 *  0.503464 *  0.546624 *  -1.08000    1.000000    
    584 O170  c    0.550714 *  0.337032 *  0.547364 *  -1.08000    1.000000    
    585 O170  c    0.791913 *  0.558420 *  0.559919 *  -1.08000    1.000000    
    586 O170  c    0.617499 *  0.281592 *  0.560346 *  -1.08000    1.000000    
    587 O170  c    0.707965 *  0.476485 *  0.579274 *  -1.08000    1.000000    
    588 O170  c    0.162854 *  0.919845 *  0.641855 *  -1.08000    1.000000    
    589 O170  c    0.707972 *  0.363646 *  0.579274 *  -1.08000    1.000000    
    590 O170  c    0.286857 *  0.919859 *  0.641319 *  -1.08000    1.000000    
    591 O170  c    0.269648 *  0.919866 *  0.580177 *  -1.08000    1.000000    
    592 O170  c    0.726727 *  0.476468 *  0.640040 *  -1.08000    1.000000    
    593 O170  c    0.145562 *  0.919859 *  0.580684 *  -1.08000    1.000000    
    594 O170  c    0.726722 *  0.363450 *  0.640035 *  -1.08000    1.000000    
    595 O170  c    0.052293 *  0.836381 *  0.561592 *  -1.08000    1.000000    
    596 O170  c    0.291817 *  0.058748 *  0.548082 *  -1.08000    1.000000    
    597 O170  c    0.117286 *  0.781492 *  0.548333 *  -1.08000    1.000000    
    598 O170  c    0.358523 *  0.003090 *  0.561040 *  -1.08000    1.000000    
    599 O170  c    0.291802 *  0.781520 *  0.547976 *  -1.08000    1.000000    
    600 O170  c    0.117283 *  0.058785 *  0.548434 *  -1.08000    1.000000    
    601 O170  c    0.358385 *  0.836852 *  0.560990 *  -1.08000    1.000000    
    602 O170  c    0.052186 *  0.003604 *  0.561645 *  -1.08000    1.000000    
    603 O171  c    0.227747 *  0.919919 *  0.667335 *  -2.00000    1.000000    
    604 O171  c    0.728294 *  0.419937 *  0.665603 *  -2.00000    1.000000    
    605 O170  c    0.315536 *  0.780631 *  0.673497 *  -1.08000    1.000000    
    606 O170  c    0.075139 *  0.002819 *  0.660978 *  -1.08000    1.000000    
    607 O170  c    0.379668 *  0.837009 *  0.660315 *  -1.08000    1.000000    
    608 O170  c    0.140873 *  0.059304 *  0.673955 *  -1.08000    1.000000    
    609 O170  c    0.379634 *  0.002889 *  0.660297 *  -1.08000    1.000000    
    610 O170  c    0.075176 *  0.836991 *  0.661001 *  -1.08000    1.000000    
    611 O170  c    0.315544 *  0.059242 *  0.673487 *  -1.08000    1.000000    
    612 O170  c    0.140863 *  0.780603 *  0.673997 *  -1.08000    1.000000    
    613 O170  c    0.231228 *  0.976283 *  0.692984 *  -1.08000    1.000000    
    614 O173  c    0.669786 *  0.422156 *  0.751305 *  -0.69000    1.000000    
    615 O170  c    0.231406 *  0.863322 *  0.693051 *  -1.08000    1.000000    
    616 O172  c    0.798476 *  0.421897 *  0.751181 *  -0.69000    1.000000    
    617 H21   c    0.795428 *  0.422222 *  0.759507 *   0.22000    1.000000    
    618 O170  c    0.791051 *  0.419940 *  0.691161 *  -1.08000    1.000000    
    619 O173  c    0.246104 *  0.980865 *  0.752847 *  -0.69000    1.000000    
    620 O170  c    0.666854 *  0.420155 *  0.691286 *  -1.08000    1.000000    
    621 O172  c    0.246370 *  0.863675 *  0.753180 *  -0.69000    1.000000    
    622 H21   c    0.248480 *  0.867584 *  0.761486 *   0.22000    1.000000    
    623 O170  c    0.576144 *  0.336637 *  0.672458 *  -1.08000    1.000000    
    624 O170  c    0.815479 *  0.559562 *  0.659346 *  -1.08000    1.000000    
    625 O170  c    0.640746 *  0.280432 *  0.659317 *  -1.08000    1.000000    
    626 O170  c    0.880779 *  0.502815 *  0.672338 *  -1.08000    1.000000    
    627 O170  c    0.815411 *  0.280279 *  0.659339 *  -1.08000    1.000000    
    628 O170  c    0.640787 *  0.559485 *  0.659318 *  -1.08000    1.000000    
    629 O170  c    0.880793 *  0.337054 *  0.672317 *  -1.08000    1.000000    
    630 O170  c    0.576111 *  0.503246 *  0.672447 *  -1.08000    1.000000    
    631 C912  c    0.605895 *  0.507927 *  0.379669 *  -0.07025    1.000000    
    632 C912  c    0.100440 *  0.911705 *  0.393508 *  -0.07025    1.000000    
    633 C912  c    0.608425 *  0.386679 *  0.376927 *  -0.07025    1.000000    
    634 C912  c    0.235432 *  0.910458 *  0.392969 *  -0.07025    1.000000    
    635 C912  c    0.233154 *  0.906453 *  0.381025 *  -0.07025    1.000000    
    636 C912  c    0.621720 *  0.499131 *  0.391326 *  -0.07025    1.000000    
    637 C912  c    0.098183 *  0.907719 *  0.381559 *  -0.07025    1.000000    
    638 C912  c    0.623798 *  0.377909 *  0.388660 *  -0.07025    1.000000    
    639 C916  c    0.583223 *  0.465083 *  0.359445 *   1.07050    1.000000    
    640 C917  c    0.170948 *  0.916803 *  0.412250 *   1.07050    1.000000    
    641 C916  c    0.163116 *  0.900099 *  0.362261 *   1.07050    1.000000    
    642 C917  c    0.647856 *  0.427005 *  0.408888 *   1.07050    1.000000    
    643 C902  c    0.599478 *  0.451996 *  0.372338 *   0.00500    1.000000    
    644 C902  c    0.168991 *  0.912892 *  0.399165 *   0.00500    1.000000    
    645 C902  c    0.164640 *  0.904913 *  0.375355 *   0.00500    1.000000    
    646 C902  c    0.630712 *  0.434210 *  0.395921 *   0.00500    1.000000    
    647 C912  c    0.358904 *  0.669654 *  0.449643 *  -0.07025    1.000000    
    648 C912  c    0.911039 *  0.115620 *  0.433807 *  -0.07025    1.000000    
    649 C912  c    0.434186 *  0.729443 *  0.435816 *  -0.07025    1.000000    
    650 C912  c    0.980508 *  0.175610 *  0.448309 *  -0.07025    1.000000    
    651 C912  c    0.431972 *  0.115862 *  0.434671 *  -0.07025    1.000000    
    652 C912  c    0.909826 *  0.729004 *  0.434477 *  -0.07025    1.000000    
    653 C912  c    0.360992 *  0.174048 *  0.449203 *  -0.07025    1.000000    
    654 C912  c    0.981594 *  0.668784 *  0.448698 *  -0.07025    1.000000    
    655 C912  c    0.183510 *  0.983525 *  0.492952 *  -0.07025    1.000000    
    656 C912  c    0.625501 *  0.419685 *  0.503585 *  -0.07025    1.000000    
    657 C912  c    0.183501 *  0.860441 *  0.492797 *  -0.07025    1.000000    
    658 C912  c    0.759617 *  0.419885 *  0.502239 *  -0.07025    1.000000    
    659 C912  c    0.754282 *  0.419943 *  0.490238 *  -0.07025    1.000000    
    660 C912  c    0.189380 *  0.982953 *  0.504885 *  -0.07025    1.000000    
    661 C912  c    0.620169 *  0.419724 *  0.491589 *  -0.07025    1.000000    
    662 C912  c    0.189358 *  0.859867 *  0.504729 *  -0.07025    1.000000    
    663 C912  c    0.411660 *  0.228136 *  0.448941 *  -0.07025    1.000000    
    664 C912  c    0.859996 *  0.674423 *  0.433873 *  -0.07025    1.000000    
    665 C912  c    0.482297 *  0.170213 *  0.434339 *  -0.07025    1.000000    
    666 C912  c    0.931600 *  0.614319 *  0.448128 *  -0.07025    1.000000    
    667 C912  c    0.860788 *  0.169918 *  0.433103 *  -0.07025    1.000000    
    668 C912  c    0.484309 *  0.674994 *  0.435653 *  -0.07025    1.000000    
    669 C912  c    0.929999 *  0.229658 *  0.447663 *  -0.07025    1.000000    
    670 C912  c    0.409162 *  0.615228 *  0.449501 *  -0.07025    1.000000    
    671 C913  c    0.314289 *  0.786610 *  0.443007 *   1.07050    1.000000    
    672 C913  c    0.027557 *  0.058341 *  0.442225 *   1.07050    1.000000    
    673 C913  c    0.313878 *  0.057989 *  0.442495 *   1.07050    1.000000    
    674 C913  c    0.026826 *  0.786497 *  0.442611 *   1.07050    1.000000    
    675 C913  c    0.174532 *  0.922635 *  0.473903 *   1.07050    1.000000    
    676 C913  c    0.699787 *  0.419804 *  0.522241 *   1.07050    1.000000    
    677 C913  c    0.679455 *  0.420044 *  0.471583 *   1.07050    1.000000    
    678 C913  c    0.198444 *  0.920630 *  0.523772 *   1.07050    1.000000    
    679 C913  c    0.529145 *  0.286467 *  0.441022 *   1.07050    1.000000    
    680 C913  c    0.814368 *  0.556950 *  0.440064 *   1.07050    1.000000    
    681 C913  c    0.813684 *  0.287267 *  0.439425 *   1.07050    1.000000    
    682 C913  c    0.528856 *  0.558040 *  0.442013 *   1.07050    1.000000    
    683 C902  c    0.370810 *  0.727113 *  0.442797 *   0.00500    1.000000    
    684 C902  c    0.971440 *  0.118021 *  0.441411 *   0.00500    1.000000    
    685 C902  c    0.370605 *  0.117405 *  0.442088 *   0.00500    1.000000    
    686 C902  c    0.971121 *  0.726585 *  0.441895 *   0.00500    1.000000    
    687 C902  c    0.180663 *  0.922246 *  0.486966 *   0.00500    1.000000    
    688 C902  c    0.695138 *  0.419786 *  0.508984 *   0.00500    1.000000    
    689 C902  c    0.684609 *  0.419889 *  0.484840 *   0.00500    1.000000    
    690 C902  c    0.192235 *  0.921142 *  0.510714 *   0.00500    1.000000    
    691 C902  c    0.472749 *  0.226804 *  0.441470 *   0.00500    1.000000    
    692 C902  c    0.870287 *  0.616738 *  0.440712 *   0.00500    1.000000    
    693 C902  c    0.869631 *  0.227343 *  0.440059 *   0.00500    1.000000    
    694 C902  c    0.472304 *  0.617437 *  0.442459 *   0.00500    1.000000    
    695 C912  c    0.891629 *  0.171092 *  0.561108 *  -0.07025    1.000000    
    696 C912  c    0.441023 *  0.614528 *  0.546974 *  -0.07025    1.000000    
    697 C912  c    0.968326 *  0.224537 *  0.546741 *  -0.07025    1.000000    
    698 C912  c    0.517498 *  0.670346 *  0.561132 *  -0.07025    1.000000    
    699 C912  c    0.968203 *  0.615592 *  0.546671 *  -0.07025    1.000000    
    700 C912  c    0.440894 *  0.225601 *  0.547060 *  -0.07025    1.000000    
    701 C912  c    0.891809 *  0.668986 *  0.561080 *  -0.07025    1.000000    
    702 C912  c    0.517703 *  0.169691 *  0.561167 *  -0.07025    1.000000    
    703 C912  c    0.715648 *  0.481528 *  0.603691 *  -0.07025    1.000000    
    704 C912  c    0.150964 *  0.919831 *  0.617521 *  -0.07025    1.000000    
    705 C912  c    0.715651 *  0.358538 *  0.603683 *  -0.07025    1.000000    
    706 C912  c    0.285502 *  0.919845 *  0.616491 *  -0.07025    1.000000    
    707 C912  c    0.281414 *  0.919845 *  0.604504 *  -0.07025    1.000000    
    708 C912  c    0.719486 *  0.481500 *  0.615652 *  -0.07025    1.000000    
    709 C912  c    0.146878 *  0.919833 *  0.605534 *  -0.07025    1.000000    
    710 C912  c    0.719484 *  0.358508 *  0.615644 *  -0.07025    1.000000    
    711 C912  c    0.941210 *  0.723964 *  0.561620 *  -0.07025    1.000000    
    712 C912  c    0.391415 *  0.170695 *  0.547338 *  -0.07025    1.000000    
    713 C912  c    0.017671 *  0.670517 *  0.547225 *  -0.07025    1.000000    
    714 C912  c    0.468256 *  0.114747 *  0.561437 *  -0.07025    1.000000    
    715 C912  c    0.391507 *  0.669418 *  0.547237 *  -0.07025    1.000000    
    716 C912  c    0.017763 *  0.169603 *  0.547314 *  -0.07025    1.000000    
    717 C912  c    0.467995 *  0.725252 *  0.561392 *  -0.07025    1.000000    
    718 C912  c    0.940975 *  0.116078 *  0.561661 *  -0.07025    1.000000    
    719 C913  c    0.848293 *  0.285381 *  0.553285 *   1.07050    1.000000    
    720 C913  c    0.560493 *  0.554828 *  0.553787 *   1.07050    1.000000    
    721 C913  c    0.848261 *  0.554739 *  0.553260 *   1.07050    1.000000    
    722 C913  c    0.560459 *  0.285278 *  0.553827 *   1.07050    1.000000    
    723 C913  c    0.709576 *  0.420065 *  0.584637 *   1.07050    1.000000    
    724 C913  c    0.223842 *  0.919847 *  0.636207 *   1.07050    1.000000    
    725 C913  c    0.208570 *  0.919854 *  0.585808 *   1.07050    1.000000    
    726 C913  c    0.725271 *  0.419966 *  0.634691 *   1.07050    1.000000    
    727 C913  c    0.060893 *  0.785024 *  0.554986 *   1.07050    1.000000    
    728 C913  c    0.348794 *  0.054991 *  0.554613 *   1.07050    1.000000    
    729 C913  c    0.348686 *  0.785084 *  0.554531 *   1.07050    1.000000    
    730 C913  c    0.060805 *  0.055077 *  0.555065 *   1.07050    1.000000    
    731 C902  c    0.904610 *  0.225686 *  0.553656 *   0.00500    1.000000    
    732 C902  c    0.504565 *  0.614659 *  0.553929 *   0.00500    1.000000    
    733 C902  c    0.904613 *  0.614423 *  0.553615 *   0.00500    1.000000    
    734 C902  c    0.504576 *  0.225430 *  0.553983 *   0.00500    1.000000    
    735 C902  c    0.713739 *  0.420046 *  0.597745 *   0.00500    1.000000    
    736 C902  c    0.220193 *  0.919840 *  0.623017 *   0.00500    1.000000    
    737 C902  c    0.212184 *  0.919842 *  0.599004 *   0.00500    1.000000    
    738 C902  c    0.721325 *  0.419991 *  0.621587 *   0.00500    1.000000    
    739 C902  c    0.004760 *  0.725164 *  0.554667 *   0.00500    1.000000    
    740 C902  c    0.404605 *  0.114899 *  0.554505 *   0.00500    1.000000    
    741 C902  c    0.404495 *  0.725154 *  0.554426 *   0.00500    1.000000    
    742 C902  c    0.004667 *  0.114915 *  0.554739 *   0.00500    1.000000    
    743 C912  c    0.416568 *  0.668913 *  0.673640 *  -0.07025    1.000000    
    744 C912  c    0.966040 *  0.113023 *  0.659780 *  -0.07025    1.000000    
    745 C912  c    0.490101 *  0.726335 *  0.659308 *  -0.07025    1.000000    
    746 C912  c    0.039838 *  0.172000 *  0.673911 *  -0.07025    1.000000    
    747 C912  c    0.490101 *  0.113579 *  0.659299 *  -0.07025    1.000000    
    748 C912  c    0.966137 *  0.726799 *  0.659798 *  -0.07025    1.000000    
    749 C912  c    0.416587 *  0.170933 *  0.673642 *  -0.07025    1.000000    
    750 C912  c    0.039824 *  0.667859 *  0.673947 *  -0.07025    1.000000    
    751 C912  c    0.237172 *  0.981851 *  0.717400 *  -0.07025    1.000000    
    752 C912  c    0.664844 *  0.421145 *  0.727808 *  -0.07025    1.000000    
    753 C912  c    0.237376 *  0.858930 *  0.717497 *  -0.07025    1.000000    
    754 C912  c    0.799919 *  0.420875 *  0.727455 *  -0.07025    1.000000    
    755 C912  c    0.798440 *  0.420515 *  0.715478 *  -0.07025    1.000000    
    756 C912  c    0.240183 *  0.982205 *  0.729368 *  -0.07025    1.000000    
    757 C912  c    0.663491 *  0.420765 *  0.715830 *  -0.07025    1.000000    
    758 C912  c    0.240395 *  0.859171 *  0.729469 *  -0.07025    1.000000    
    759 C912  c    0.466494 *  0.225579 *  0.673553 *  -0.07025    1.000000    
    760 C912  c    0.916161 *  0.672270 *  0.659538 *  -0.07025    1.000000    
    761 C912  c    0.540113 *  0.168152 *  0.659231 *  -0.07025    1.000000    
    762 C912  c    0.989825 *  0.613322 *  0.673688 *  -0.07025    1.000000    
    763 C912  c    0.916073 *  0.167559 *  0.659523 *  -0.07025    1.000000    
    764 C912  c    0.540126 *  0.671772 *  0.659235 *  -0.07025    1.000000    
    765 C912  c    0.989838 *  0.226535 *  0.673658 *  -0.07025    1.000000    
    766 C912  c    0.466475 *  0.614267 *  0.673544 *  -0.07025    1.000000    
    767 C913  c    0.371361 *  0.784852 *  0.666735 *   1.07050    1.000000    
    768 C913  c    0.084505 *  0.055212 *  0.667298 *   1.07050    1.000000    
    769 C913  c    0.371361 *  0.055030 *  0.666723 *   1.07050    1.000000    
    770 C913  c    0.084535 *  0.784639 *  0.667331 *   1.07050    1.000000    
    771 C913  c    0.232573 *  0.919916 *  0.698369 *   1.07050    1.000000    
    772 C914  c    0.734026 *  0.421813 *  0.746716 *   1.07050    1.000000    
    773 C913  c    0.729190 *  0.420159 *  0.696563 *   1.07050    1.000000    
    774 C914  c    0.245104 *  0.921746 *  0.748491 *   1.07050    1.000000    
    775 C913  c    0.584852 *  0.284410 *  0.666070 *   1.07050    1.000000    
    776 C913  c    0.871587 *  0.555377 *  0.666056 *   1.07050    1.000000    
    777 C913  c    0.871560 *  0.284473 *  0.666041 *   1.07050    1.000000    
    778 C913  c    0.584859 *  0.555487 *  0.666064 *   1.07050    1.000000    
    779 C902  c    0.427753 *  0.725287 *  0.666519 *   0.00500    1.000000    
    780 C902  c    0.028454 *  0.114907 *  0.666970 *   0.00500    1.000000    
    781 C902  c    0.427761 *  0.114591 *  0.666513 *   0.00500    1.000000    
    782 C902  c    0.028496 *  0.724934 *  0.667000 *   0.00500    1.000000    
    783 C902  c    0.235795 *  0.920231 *  0.711495 *   0.00500    1.000000    
    784 C902  c    0.733028 *  0.421246 *  0.733591 *   0.00500    1.000000    
    785 C902  c    0.730307 *  0.420485 *  0.709697 *   0.00500    1.000000    
    786 C902  c    0.241794 *  0.920881 *  0.735375 *   0.00500    1.000000    
    787 C902  c    0.528779 *  0.224607 *  0.666328 *   0.00500    1.000000    
    788 C902  c    0.927547 *  0.615136 *  0.666465 *   0.00500    1.000000    
    789 C902  c    0.927513 *  0.224709 *  0.666445 *   0.00500    1.000000    
    790 C902  c    0.528780 *  0.615284 *  0.666324 *   0.00500    1.000000    
    791 H915  c    0.599011 *  0.559130 *  0.376137 *   0.11250    1.000000    
    792 H915  c    0.048994 *  0.913846 *  0.398575 *   0.11250    1.000000    
    793 H915  c    0.603704 *  0.342239 *  0.371319 *   0.11250    1.000000    
    794 H915  c    0.288626 *  0.911746 *  0.397595 *   0.11250    1.000000    
    795 H915  c    0.284596 *  0.904690 *  0.375967 *   0.11250    1.000000    
    796 H915  c    0.627159 *  0.543019 *  0.397063 *   0.11250    1.000000    
    797 H915  c    0.044890 *  0.906690 *  0.376964 *   0.11250    1.000000    
    798 H915  c    0.630973 *  0.326948 *  0.392278 *   0.11250    1.000000    
    799 H915  c    0.309247 *  0.667941 *  0.455125 *   0.11250    1.000000    
    800 H915  c    0.903785 *  0.070667 *  0.428370 *   0.11250    1.000000    
    801 H915  c    0.443882 *  0.774326 *  0.430454 *   0.11250    1.000000    
    802 H915  c    0.027769 *  0.177623 *  0.454270 *   0.11250    1.000000    
    803 H915  c    0.439853 *  0.071692 *  0.429073 *   0.11250    1.000000    
    804 H915  c    0.901504 *  0.774162 *  0.429125 *   0.11250    1.000000    
    805 H915  c    0.313002 *  0.175286 *  0.455030 *   0.11250    1.000000    
    806 H915  c    0.029658 *  0.666914 *  0.454507 *   0.11250    1.000000    
    807 H915  c    0.181180 *  0.031404 *  0.488166 *   0.11250    1.000000    
    808 H915  c    0.575163 *  0.419595 *  0.508925 *   0.11250    1.000000    
    809 H915  c    0.181152 *  0.813018 *  0.487882 *   0.11250    1.000000    
    810 H915  c    0.814174 *  0.419950 *  0.506477 *   0.11250    1.000000    
    811 H915  c    0.804632 *  0.420056 *  0.484901 *   0.11250    1.000000    
    812 H915  c    0.191739 *  0.030375 *  0.509800 *   0.11250    1.000000    
    813 H915  c    0.565610 *  0.419675 *  0.487353 *   0.11250    1.000000    
    814 H915  c    0.191695 *  0.811991 *  0.509516 *   0.11250    1.000000    
    815 H915  c    0.403801 *  0.272268 *  0.454548 *   0.11250    1.000000    
    816 H915  c    0.811969 *  0.676318 *  0.428059 *   0.11250    1.000000    
    817 H915  c    0.530193 *  0.169015 *  0.428492 *   0.11250    1.000000    
    818 H915  c    0.939887 *  0.569197 *  0.453490 *   0.11250    1.000000    
    819 H915  c    0.813597 *  0.167878 *  0.427129 *   0.11250    1.000000    
    820 H915  c    0.533942 *  0.676652 *  0.430165 *   0.11250    1.000000    
    821 H915  c    0.937178 *  0.274571 *  0.453112 *   0.11250    1.000000    
    822 H915  c    0.399421 *  0.570361 *  0.454865 *   0.11250    1.000000    
    823 H915  c    0.841631 *  0.172162 *  0.566520 *   0.11250    1.000000    
    824 H915  c    0.430604 *  0.571039 *  0.541322 *   0.11250    1.000000    
    825 H915  c    0.979057 *  0.267016 *  0.540887 *   0.11250    1.000000    
    826 H915  c    0.567372 *  0.670237 *  0.566575 *   0.11250    1.000000    
    827 H915  c    0.978798 *  0.573140 *  0.540806 *   0.11250    1.000000    
    828 H915  c    0.430327 *  0.269134 *  0.541425 *   0.11250    1.000000    
    829 H915  c    0.841922 *  0.667913 *  0.566517 *   0.11250    1.000000    
    830 H915  c    0.567699 *  0.169784 *  0.566583 *   0.11250    1.000000    
    831 H915  c    0.714099 *  0.529227 *  0.598846 *   0.11250    1.000000    
    832 H915  c    0.100191 *  0.919826 *  0.622761 *   0.11250    1.000000    
    833 H915  c    0.714108 *  0.310861 *  0.598832 *   0.11250    1.000000    
    834 H915  c    0.339526 *  0.919852 *  0.620888 *   0.11250    1.000000    
    835 H915  c    0.332196 *  0.919852 *  0.599266 *   0.11250    1.000000    
    836 H915  c    0.721001 *  0.529173 *  0.620504 *   0.11250    1.000000    
    837 H915  c    0.092848 *  0.919830 *  0.601138 *   0.11250    1.000000    
    838 H915  c    0.721001 *  0.310813 *  0.620490 *   0.11250    1.000000    
    839 H915  c    0.930593 *  0.766437 *  0.567480 *   0.11250    1.000000    
    840 H915  c    0.341424 *  0.170598 *  0.541921 *   0.11250    1.000000    
    841 H915  c    0.067558 *  0.671589 *  0.541788 *   0.11250    1.000000    
    842 H915  c    0.478840 *  0.071201 *  0.567068 *   0.11250    1.000000    
    843 H915  c    0.341641 *  0.669530 *  0.541793 *   0.11250    1.000000    
    844 H915  c    0.067767 *  0.168536 *  0.541902 *   0.11250    1.000000    
    845 H915  c    0.478428 *  0.768750 *  0.567041 *   0.11250    1.000000    
    846 H915  c    0.930216 *  0.073573 *  0.567508 *   0.11250    1.000000    
    847 H915  c    0.367681 *  0.668194 *  0.679291 *   0.11250    1.000000    
    848 H915  c    0.956934 *  0.068365 *  0.654340 *   0.11250    1.000000    
    849 H915  c    0.499227 *  0.770355 *  0.653721 *   0.11250    1.000000    
    850 H915  c    0.088779 *  0.173350 *  0.679547 *   0.11250    1.000000    
    851 H915  c    0.499222 *  0.069586 *  0.653707 *   0.11250    1.000000    
    852 H915  c    0.957077 *  0.771444 *  0.654353 *   0.11250    1.000000    
    853 H915  c    0.367714 *  0.171621 *  0.679295 *   0.11250    1.000000    
    854 H915  c    0.088727 *  0.666518 *  0.679591 *   0.11250    1.000000    
    855 H915  c    0.235884 *  0.029424 *  0.712514 *   0.11250    1.000000    
    856 H915  c    0.612813 *  0.421392 *  0.732758 *   0.11250    1.000000    
    857 H915  c    0.236244 *  0.811127 *  0.712675 *   0.11250    1.000000    
    858 H915  c    0.853146 *  0.420916 *  0.732085 *   0.11250    1.000000    
    859 H915  c    0.850211 *  0.420260 *  0.710471 *   0.11250    1.000000    
    860 H915  c    0.241315 *  0.030231 *  0.734136 *   0.11250    1.000000    
    861 H915  c    0.610562 *  0.420710 *  0.711121 *   0.11250    1.000000    
    862 H915  c    0.241682 *  0.811317 *  0.734277 *   0.11250    1.000000    
    863 H915  c    0.457338 *  0.269592 *  0.679140 *   0.11250    1.000000    
    864 H915  c    0.867281 *  0.673595 *  0.653890 *   0.11250    1.000000    
    865 H915  c    0.588995 *  0.167464 *  0.653580 *   0.11250    1.000000    
    866 H915  c    0.998910 *  0.568668 *  0.679130 *   0.11250    1.000000    
    867 H915  c    0.867152 *  0.166225 *  0.653884 *   0.11250    1.000000    
    868 H915  c    0.589020 *  0.672492 *  0.653587 *   0.11250    1.000000    
    869 H915  c    0.998965 *  0.271198 *  0.679097 *   0.11250    1.000000    
    870 H915  c    0.457313 *  0.570221 *  0.679124 *   0.11250    1.000000    
    871 Zn172 c    0.169960 *  0.837115 *  0.452836 *   2.00000    1.000000    
    872 Zn172 c    0.076377 *  0.921977 *  0.433279 *   2.00000    1.000000    
    873 Zn172 c    0.264710 *  0.921734 *  0.433315 *   2.00000    1.000000    
    874 Zn172 c    0.170308 *  0.007563 *  0.452766 *   2.00000    1.000000    
    875 Zn172 c    0.766540 *  0.421150 *  0.449581 *   2.00000    1.000000    
    876 Zn172 c    0.668485 *  0.508035 *  0.430682 *   2.00000    1.000000    
    877 Zn172 c    0.579841 *  0.420919 *  0.450695 *   2.00000    1.000000    
    878 Zn172 c    0.668778 *  0.339113 *  0.429711 *   2.00000    1.000000    
    879 Zn172 c    0.705190 *  0.335752 *  0.563401 *   2.00000    1.000000    
    880 Zn172 c    0.608948 *  0.419995 *  0.543937 *   2.00000    1.000000    
    881 Zn172 c    0.797284 *  0.420029 *  0.543322 *   2.00000    1.000000    
    882 Zn172 c    0.705180 *  0.504347 *  0.563397 *   2.00000    1.000000    
    883 Zn172 c    0.300230 *  0.919951 *  0.564312 *   2.00000    1.000000    
    884 Zn172 c    0.204086 *  0.004688 *  0.544968 *   2.00000    1.000000    
    885 Zn172 c    0.111373 *  0.919961 *  0.564820 *   2.00000    1.000000    
    886 Zn172 c    0.204078 *  0.835748 *  0.544882 *   2.00000    1.000000    
    887 Zn172 c    0.228766 *  0.835195 *  0.677160 *   2.00000    1.000000    
    888 Zn172 c    0.132829 *  0.919890 *  0.657754 *   2.00000    1.000000    
    889 Zn172 c    0.320795 *  0.919918 *  0.657192 *   2.00000    1.000000    
    890 Zn172 c    0.228730 *  0.004754 *  0.677134 *   2.00000    1.000000    
    891 Zn172 c    0.822643 *  0.419904 *  0.675358 *   2.00000    1.000000    
    892 Zn172 c    0.728099 *  0.504886 *  0.655862 *   2.00000    1.000000    
    893 Zn172 c    0.634234 *  0.419952 *  0.675489 *   2.00000    1.000000    
    894 Zn172 c    0.728065 *  0.334992 *  0.655857 *   2.00000    1.000000    
--------------------------------------------------------------------------------



  Molecule list generated from bond lengths :

  Total number of molecules =    22

--------------------------------------------------------------------------------
Molecule No./:  Atoms
Periodicity  :  
--------------------------------------------------------------------------------
     1  0    : O3   c   181 H22  c   182
     2  0    : O3   c   187 H22  c   188
     3  0    : O176 c   543 O176 c   545 O177 c   548 O177 c   550 C912 c   631
             : C912 c   633 C912 c   636 C912 c   638 C916 c   639 C917 c   642
             : C902 c   643 C902 c   646 H915 c   791 H915 c   793 H915 c   796
             : H915 c   798
     4  0    : O177 c   544 O177 c   546 O176 c   547 O176 c   549 C912 c   632
             : C912 c   634 C912 c   635 C912 c   637 C917 c   640 C916 c   641
             : C902 c   644 C902 c   645 H915 c   792 H915 c   794 H915 c   795
             : H915 c   797
     5  0    : O170 c   553 O170 c   555 O170 c   574 O170 c   576 C912 c   647
             : C912 c   649 C912 c   668 C912 c   670 C913 c   671 C913 c   682
             : C902 c   683 C902 c   694 H915 c   799 H915 c   801 H915 c   820
             : H915 c   822
     6  0    : O170 c   554 O170 c   556 O170 c   573 O170 c   575 C912 c   648
             : C912 c   650 C912 c   667 C912 c   669 C913 c   672 C913 c   681
             : C902 c   684 C902 c   693 H915 c   800 H915 c   802 H915 c   819
             : H915 c   821
     7  0    : O170 c   557 O170 c   559 O170 c   569 O170 c   571 C912 c   651
             : C912 c   653 C912 c   663 C912 c   665 C913 c   673 C913 c   679
             : C902 c   685 C902 c   691 H915 c   803 H915 c   805 H915 c   815
             : H915 c   817
     8  0    : O170 c   558 O170 c   560 O170 c   570 O170 c   572 C912 c   652
             : C912 c   654 C912 c   664 C912 c   666 C913 c   674 C913 c   680
             : C902 c   686 C902 c   692 H915 c   804 H915 c   806 H915 c   816
             : H915 c   818
     9  0    : O170 c   561 O170 c   563 O170 c   566 O170 c   568 C912 c   655
             : C912 c   657 C912 c   660 C912 c   662 C913 c   675 C913 c   678
             : C902 c   687 C902 c   690 H915 c   807 H915 c   809 H915 c   812
             : H915 c   814
    10  0    : O170 c   562 O170 c   564 O170 c   565 O170 c   567 C912 c   656
             : C912 c   658 C912 c   659 C912 c   661 C913 c   676 C913 c   677
             : C902 c   688 C902 c   689 H915 c   808 H915 c   810 H915 c   811
             : H915 c   813
    11  0    : O170 c   579 O170 c   581 O170 c   600 O170 c   602 C912 c   695
             : C912 c   697 C912 c   716 C912 c   718 C913 c   719 C913 c   730
             : C902 c   731 C902 c   742 H915 c   823 H915 c   825 H915 c   844
             : H915 c   846
    12  0    : O170 c   580 O170 c   582 O170 c   599 O170 c   601 C912 c   696
             : C912 c   698 C912 c   715 C912 c   717 C913 c   720 C913 c   729
             : C902 c   732 C902 c   741 H915 c   824 H915 c   826 H915 c   843
             : H915 c   845
    13  0    : O170 c   583 O170 c   585 O170 c   595 O170 c   597 C912 c   699
             : C912 c   701 C912 c   711 C912 c   713 C913 c   721 C913 c   727
             : C902 c   733 C902 c   739 H915 c   827 H915 c   829 H915 c   839
             : H915 c   841
    14  0    : O170 c   584 O170 c   586 O170 c   596 O170 c   598 C912 c   700
             : C912 c   702 C912 c   712 C912 c   714 C913 c   722 C913 c   728
             : C902 c   734 C902 c   740 H915 c   828 H915 c   830 H915 c   840
             : H915 c   842
    15  0    : O170 c   587 O170 c   589 O170 c   592 O170 c   594 C912 c   703
             : C912 c   705 C912 c   708 C912 c   710 C913 c   723 C913 c   726
             : C902 c   735 C902 c   738 H915 c   831 H915 c   833 H915 c   836
             : H915 c   838
    16  0    : O170 c   588 O170 c   590 O170 c   591 O170 c   593 C912 c   704
             : C912 c   706 C912 c   707 C912 c   709 C913 c   724 C913 c   725
             : C902 c   736 C902 c   737 H915 c   832 H915 c   834 H915 c   835
             : H915 c   837
    17  0    : O170 c   605 O170 c   607 O170 c   628 O170 c   630 C912 c   743
             : C912 c   745 C912 c   764 C912 c   766 C913 c   767 C913 c   778
             : C902 c   779 C902 c   790 H915 c   847 H915 c   849 H915 c   868
             : H915 c   870
    18  0    : O170 c   606 O170 c   608 O170 c   627 O170 c   629 C912 c   744
             : C912 c   746 C912 c   763 C912 c   765 C913 c   768 C913 c   777
             : C902 c   780 C902 c   789 H915 c   848 H915 c   850 H915 c   867
             : H915 c   869
    19  0    : O170 c   609 O170 c   611 O170 c   623 O170 c   625 C912 c   747
             : C912 c   749 C912 c   759 C912 c   761 C913 c   769 C913 c   775
             : C902 c   781 C902 c   787 H915 c   851 H915 c   853 H915 c   863
             : H915 c   865
    20  0    : O170 c   610 O170 c   612 O170 c   624 O170 c   626 C912 c   748
             : C912 c   750 C912 c   760 C912 c   762 C913 c   770 C913 c   776
             : C902 c   782 C902 c   788 H915 c   852 H915 c   854 H915 c   864
             : H915 c   866
    21  0    : O170 c   613 O170 c   615 O173 c   619 O172 c   621 H21  c   622
             : C912 c   751 C912 c   753 C912 c   756 C912 c   758 C913 c   771
[...]
   640 C917  c    -17.572602           0.257100   -0.507544   -6.842650
   641 C916  c    -16.886635           0.010400    0.551517    6.093235
   642 C917  c    -17.358389          -0.916117    0.366284   -6.968296
   643 C902  c      2.290806          -0.559194    0.411331   -4.181178
   644 C902  c      1.107334          -0.189741    0.237250    3.755657
   645 C902  c      1.149748           0.286538   -0.427716   -3.860565
   646 C902  c      1.495264           0.423305   -0.337624    3.473226
   647 C912  c      1.058813          -1.084665    0.399286    0.501604
   648 C912  c      1.035712           0.277944   -1.177956   -0.504296
   649 C912  c      1.090206          -0.254399    1.183739   -0.477798
   650 C912  c      1.009123           1.041677   -0.434284    0.560380
   651 C912  c      1.048874          -0.268574   -1.177941   -0.473335
   652 C912  c      1.049682           0.269532    1.181245   -0.501769
   653 C912  c      1.034966          -1.075184   -0.411296    0.533853
   654 C912  c      1.020030           1.042929    0.428805    0.551464
   655 C912  c      1.036315          -0.011158    0.692449   -1.049450
   656 C912  c      1.060400          -0.722643    0.003466    1.049884
   657 C912  c      1.034822          -0.010405   -0.690873   -1.047798
   658 C912  c      1.063215           0.732038    0.006046    1.046357
   659 C912  c      1.067249           0.725899   -0.002326   -1.056795
   660 C912  c      1.039853           0.012789    0.691993    1.054531
   661 C912  c      1.064007          -0.729246   -0.005113   -1.050442
   662 C912  c      1.039781           0.013348   -0.691701    1.055051
   663 C912  c      1.065004           0.280618    1.190154    0.479652
   664 C912  c      1.032393          -1.063525   -0.443012   -0.545646
   665 C912  c      1.043137           1.084043    0.426499   -0.532149
   666 C912  c      1.067079          -0.286479   -1.191874    0.512261
   667 C912  c      1.022268          -1.068450    0.445932   -0.550899
   668 C912  c      1.075252           1.079375   -0.414465   -0.522709
   669 C912  c      1.047875          -0.295229    1.177532    0.518716
   670 C912  c      1.098310           0.262258   -1.210175    0.459384
   671 C913  c    -17.537766           4.694275   -5.351331   -0.263060
   672 C913  c    -17.551228          -4.704215    5.327912   -0.424208
   673 C913  c    -17.545225           4.691098    5.341242   -0.317809
   674 C913  c    -17.554600          -4.687800   -5.351968   -0.413185
   675 C913  c    -17.495841           0.069570    0.013969    6.879348
   676 C913  c    -17.483901          -0.005244   -0.032224   -6.986287
   677 C913  c    -17.476168           0.046228    0.026517    6.999526
   678 C913  c    -17.486907          -0.092436    0.002297   -6.894773
   679 C913  c    -17.496841          -4.683811   -5.326962    0.335732
   680 C913  c    -17.490023           4.662799    5.345919    0.355583
   681 C913  c    -17.500931           4.638819   -5.371903    0.281916
   682 C913  c    -17.484273          -4.737211    5.282176    0.409412
   683 C902  c      1.192600          -2.300962    2.705057    0.060479
   684 C902  c      1.143016           2.274209   -2.722236    0.107326
   685 C902  c      1.165056          -2.307801   -2.705776    0.101874
   686 C902  c      1.152767           2.264137    2.727322    0.097562
   687 C902  c      1.244208          -0.034215   -0.001230   -3.739821
   688 C902  c      1.220081           0.009634    0.016279    3.629767
   689 C902  c      1.227377          -0.014061   -0.012181   -3.634804
   690 C902  c      1.252413           0.047969   -0.001380    3.745609
   691 C902  c      1.189324           2.316198    2.719701   -0.104280
   692 C902  c      1.181225          -2.287158   -2.735383   -0.074117
   693 C902  c      1.166805          -2.298606    2.724271   -0.067386
   694 C902  c      1.217652           2.298501   -2.728479   -0.112690
   695 C912  c      1.024115          -1.061859    0.443238    0.467401
   696 C912  c      1.080673           0.251086   -1.187007   -0.562868
   697 C912  c      1.079453          -0.249466    1.188391   -0.559980
   698 C912  c      1.024509           1.058951   -0.445742    0.471644
   699 C912  c      1.079860          -0.250012   -1.187957   -0.560440
   700 C912  c      1.079741           0.250250    1.187520   -0.561345
   701 C912  c      1.024468          -1.061698   -0.443321    0.468196
   702 C912  c      1.024198           1.059551    0.445292    0.470871
   703 C912  c      1.054480          -0.000345    0.699746   -1.051607
   704 C912  c      1.053195          -0.719127    0.000227    1.050860
   705 C912  c      1.054331          -0.000311   -0.699969   -1.051333
   706 C912  c      1.053457           0.719803    0.000463    1.050662
   707 C912  c      1.053237           0.719355   -0.000395   -1.050678
   708 C912  c      1.055811           0.000450    0.699940    1.053381
   709 C912  c      1.052966          -0.719510   -0.000619   -1.050290
   710 C912  c      1.055711           0.000442   -0.699504    1.053652
   711 C912  c      1.079952           0.249498    1.187834    0.560524
   712 C912  c      1.023736          -1.059627   -0.444995   -0.470062
   713 C912  c      1.023736           1.061378    0.442939   -0.467627
   714 C912  c      1.079848          -0.250085   -1.187311    0.561548
   715 C912  c      1.024624          -1.059397    0.445229   -0.471289
   716 C912  c      1.022935           1.061212   -0.442861   -0.466566
   717 C912  c      1.080017          -0.251037    1.186310    0.562692
   718 C912  c      1.079881           0.248727   -1.188502    0.560182
   719 C913  c    -17.520028           4.759864   -5.283991   -0.071975
   720 C913  c    -17.519075          -4.755678    5.288499   -0.084006
   721 C913  c    -17.519586           4.760799    5.283504   -0.073714
   722 C913  c    -17.520037          -4.753555   -5.290155   -0.082261
   723 C913  c    -17.482959           0.003279    0.001615    6.925624
   724 C913  c    -17.491000          -0.000018   -0.003234   -6.971642
   725 C913  c    -17.484545           0.002844    0.002781    6.957111
   726 C913  c    -17.469544          -0.001852   -0.001215   -6.910505
   727 C913  c    -17.521683          -4.762788   -5.284874    0.075235
   728 C913  c    -17.520531           4.754973    5.290912    0.080802
   729 C913  c    -17.520241           4.755024   -5.291536    0.077705
   730 C913  c    -17.522194          -4.763318    5.284256    0.076757
   731 C902  c      1.178058          -2.260200    2.748324   -0.123906
   732 C902  c      1.178524           2.257888   -2.749420   -0.119839
   733 C902  c      1.178269          -2.260616   -2.747557   -0.122902
   734 C902  c      1.178058           2.257681    2.750139   -0.119651
   735 C902  c      1.253383          -0.001654   -0.000614   -3.717895
   736 C902  c      1.223937           0.000604    0.001528    3.655561
   737 C902  c      1.223741          -0.000889   -0.001425   -3.655698
   738 C902  c      1.256563           0.001058    0.000667    3.720621
   739 C902  c      1.177670           2.259822    2.747692    0.122531
   740 C902  c      1.177911          -2.258029   -2.749894    0.120423
   741 C902  c      1.178117          -2.258432    2.748702    0.121262
   742 C902  c      1.177401           2.259066   -2.748768    0.122914
   743 C912  c      1.035309          -1.064833    0.432580    0.517778
   744 C912  c      1.071525           0.269246   -1.186791   -0.512232
   745 C912  c      1.072366          -0.269295    1.186792   -0.510868
   746 C912  c      1.032877           1.064107   -0.432145    0.515877
   747 C912  c      1.068904          -0.270114   -1.186356   -0.513631
   748 C912  c      1.075056           0.269254    1.186394   -0.510443
   749 C912  c      1.028576          -1.064415   -0.433436    0.515615
   750 C912  c      1.040332           1.063840    0.431923    0.519528
   751 C912  c      1.204416           0.003452    0.643930   -0.960875
   752 C912  c      1.412708          -0.525481    0.018152    1.283695
   753 C912  c      1.256586           0.005383   -0.682910   -0.924215
   754 C912  c      1.545648           0.612683    0.017115    1.379597
   755 C912  c      1.253665           0.682936   -0.006285   -0.920133
   756 C912  c      1.410763          -0.014586    0.524494    1.282138
   757 C912  c      1.202329          -0.643958   -0.004267   -0.956743
   758 C912  c      1.545054          -0.013494   -0.613772    1.377869
   759 C912  c      1.063606           0.271956    1.187129    0.506692
   760 C912  c      1.041066          -1.065212   -0.431609   -0.518688
   761 C912  c      1.034912           1.064995    0.432405   -0.521890
   762 C912  c      1.075539          -0.270780   -1.186623    0.510769
   763 C912  c      1.037376          -1.065611    0.431775   -0.519424
   764 C912  c      1.038510           1.065610   -0.431483   -0.520158
   765 C912  c      1.068964          -0.271293    1.187672    0.508569
   766 C912  c      1.069429           0.270722   -1.186572    0.507435
   767 C913  c    -17.514807           4.702089   -5.325802   -0.280118
   768 C913  c    -17.516382          -4.705948    5.322970   -0.275826
   769 C913  c    -17.517276           4.702487    5.324925   -0.275244
   770 C913  c    -17.513629          -4.704084   -5.325488   -0.279297
   771 C913  c    -17.433810          -0.047429    0.009938    6.973089
   772 C914  c    -14.311900           0.588728   -0.053380   -4.514378
   773 C913  c    -17.446283          -0.010405    0.058454    6.964334
   774 C914  c    -14.314839           0.043165   -0.587307   -4.514995
   775 C913  c    -17.515293          -4.705952   -5.323770    0.284162
   776 C913  c    -17.511825           4.707505    5.325130    0.279630
   777 C913  c    -17.513391           4.708282   -5.322592    0.278883
   778 C913  c    -17.514137          -4.704881    5.326411    0.282316
   779 C902  c      1.181522          -2.286343    2.731637    0.034139
   780 C902  c      1.179920           2.286353   -2.731565    0.030288
   781 C902  c      1.177062          -2.287053   -2.731940    0.030003
   782 C902  c      1.184644           2.285463    2.731057    0.034278
   783 C902  c      1.371746           0.022028   -0.020229   -3.602013
   784 C902  c      2.109564           0.084378    0.054989    4.378339
   785 C902  c      1.365638           0.021038   -0.026934   -3.595718
   786 C902  c      2.107368          -0.043943   -0.086878    4.377426
   787 C902  c      1.178352           2.287489    2.732797   -0.037536
   788 C902  c      1.186002          -2.286992   -2.731108   -0.033119
   789 C902  c      1.181771          -2.287606    2.732182   -0.033655
   790 C902  c      1.182247           2.287272   -2.731682   -0.036723
   791 H915  c     -1.249808          -0.037522    0.374472    0.129180
   792 H915  c     -2.069712          -0.524145   -0.038603   -0.216046
   793 H915  c     -0.791743          -0.104132   -0.356755   -0.500206
   794 H915  c     -1.995719           0.624256   -0.075910   -0.283489
   795 H915  c     -1.750252           0.683715   -0.151193    0.073614
   796 H915  c     -1.708118          -0.101275    0.559582   -0.385720
   797 H915  c     -2.092363          -0.637701   -0.044593    0.129297
   798 H915  c     -1.534652          -0.052332   -0.470527   -0.355526
   799 H915  c     -1.883731          -0.134819   -0.473869    0.344405
   800 H915  c     -1.859171          -0.372700   -0.122818   -0.357681
   801 H915  c     -1.813311           0.429408    0.104989   -0.366922
   802 H915  c     -1.936229           0.105007    0.473851    0.383875
   803 H915  c     -1.859876           0.414704   -0.113107   -0.356167
   804 H915  c     -1.844470          -0.381198    0.118725   -0.361117
   805 H915  c     -1.900185          -0.128728    0.463495    0.358945
   806 H915  c     -1.928388           0.107700   -0.480782    0.378612
   807 H915  c     -1.930289           0.001986    0.545919    0.279747
   808 H915  c     -1.879224          -0.536760   -0.001952   -0.241887
   809 H915  c     -1.934641           0.002990   -0.547919    0.286160
   810 H915  c     -1.872385           0.534313   -0.000086   -0.238105
   811 H915  c     -1.864691           0.535506    0.001972    0.228484
   812 H915  c     -1.924551          -0.004401    0.546842   -0.276979
   813 H915  c     -1.872962          -0.535923   -0.000096    0.241593
   814 H915  c     -1.925011          -0.003942   -0.546948   -0.277954
   815 H915  c     -1.831829          -0.399666    0.122495    0.363261
   816 H915  c     -1.898783          -0.134113    0.452969   -0.374943
   817 H915  c     -1.886981           0.137000   -0.448065   -0.355335
   818 H915  c     -1.814154           0.372999   -0.128609    0.372834
   819 H915  c     -1.902875          -0.140034   -0.425480   -0.366073
   820 H915  c     -1.864613           0.120227    0.493509   -0.372626
   821 H915  c     -1.842706           0.384139    0.112810    0.381929
   822 H915  c     -1.789874          -0.389462   -0.143789    0.341796
   823 H915  c     -1.939636          -0.119099   -0.496218    0.389615
   824 H915  c     -1.789371          -0.372885   -0.132120   -0.352270
   825 H915  c     -1.791203           0.375140    0.133127   -0.349421
   826 H915  c     -1.939315           0.117567    0.494819    0.391405
   827 H915  c     -1.790793           0.374870   -0.132941   -0.349868
   828 H915  c     -1.790760          -0.373886    0.132101   -0.351493
   829 H915  c     -1.939104          -0.118886    0.495745    0.389752
   830 H915  c     -1.939499           0.118206   -0.495148    0.390783
   831 H915  c     -1.905102           0.000227    0.544047    0.270910
   832 H915  c     -1.890092          -0.538056   -0.000379   -0.247926
   833 H915  c     -1.905393           0.000281   -0.543924    0.271220
   834 H915  c     -1.889496           0.537851   -0.000192   -0.247555
   835 H915  c     -1.889689           0.537821    0.000082    0.246527
   836 H915  c     -1.902813           0.000101    0.543130   -0.268033
   837 H915  c     -1.890338          -0.537729   -0.000095    0.247314
   838 H915  c     -1.902965           0.000081   -0.543097   -0.267760
   839 H915  c     -1.790715          -0.374995    0.132385    0.350361
   840 H915  c     -1.940539          -0.117923    0.495251   -0.389877
   841 H915  c     -1.940565           0.118210   -0.496269   -0.389372
   842 H915  c     -1.790814           0.374109   -0.131585    0.351571
   843 H915  c     -1.939085          -0.117651   -0.494062   -0.390793
   844 H915  c     -1.942061           0.118149    0.497470   -0.388965
   845 H915  c     -1.790903           0.373857    0.130906    0.352187
   846 H915  c     -1.790449          -0.374945   -0.132911    0.349944
   847 H915  c     -1.911179          -0.124007   -0.469440    0.368742
   848 H915  c     -1.815714          -0.387381   -0.123352   -0.362067
   849 H915  c     -1.815490           0.387600    0.122880   -0.362145
   850 H915  c     -1.915721           0.122293    0.469843    0.367289
   851 H915  c     -1.818029           0.387287   -0.122803   -0.363409
   852 H915  c     -1.813372          -0.387364    0.122699   -0.361506
   853 H915  c     -1.919671          -0.124110    0.467378    0.365584
   854 H915  c     -1.906135           0.121812   -0.470909    0.371388
   855 H915  c     -1.834298          -0.005011    0.489134    0.292740
   856 H915  c     -1.667879          -0.247562    0.002413   -0.164514
   857 H915  c     -1.780595          -0.003764   -0.503895    0.334081
   858 H915  c     -1.392987           0.268520    0.004114    0.040146
   859 H915  c     -1.785696           0.503741    0.004770    0.337502
   860 H915  c     -1.671179          -0.001992    0.246821   -0.165593
   861 H915  c     -1.838433          -0.490411    0.006095    0.297459
   862 H915  c     -1.393784          -0.003279   -0.269164    0.038737
   863 H915  c     -1.827209          -0.381619    0.124666    0.355537
   864 H915  c     -1.904740          -0.122772    0.472502   -0.371161
   865 H915  c     -1.909361           0.122891   -0.472399   -0.373080
   866 H915  c     -1.813089           0.384053   -0.122358    0.361688
   867 H915  c     -1.907668          -0.123027   -0.472628   -0.372101
   868 H915  c     -1.906254           0.123406    0.472497   -0.371438
   869 H915  c     -1.820013           0.382782    0.124837    0.358383
   870 H915  c     -1.821409          -0.383900   -0.122417    0.357863
   871 Zn172 c    -20.949806           0.003830   -0.363558   -0.005746
   872 Zn172 c    -20.711085          -0.545086    0.040501    0.198218
   873 Zn172 c    -20.815348           0.527987    0.030765    0.281881
   874 Zn172 c    -20.941490           0.010582    0.388571    0.004849
   875 Zn172 c    -20.622972           0.460104    0.011841   -0.028976
   876 Zn172 c    -20.865250           0.090338    0.370400   -0.161018
   877 Zn172 c    -20.629696          -0.400843    0.018753   -0.059194
   878 Zn172 c    -20.730191           0.060309   -0.162551   -0.266418
   879 Zn172 c    -20.981041          -0.000519   -0.241969    0.080504
   880 Zn172 c    -20.575276          -0.527416    0.004830    0.079209
   881 Zn172 c    -20.572239           0.515814    0.002225    0.073940
   882 Zn172 c    -20.980671           0.000027    0.244198    0.081438
   883 Zn172 c    -20.593086           0.548520   -0.000314   -0.120962
   884 Zn172 c    -21.002276           0.009591    0.268445   -0.033583
   885 Zn172 c    -20.591222          -0.545544    0.000591   -0.125337
   886 Zn172 c    -21.000036           0.008931   -0.272500   -0.034753
   887 Zn172 c    -20.888511           0.002742   -0.275873    0.125651
   888 Zn172 c    -20.649467          -0.476556    0.001167    0.101307
   889 Zn172 c    -20.650199           0.475336    0.001128    0.099710
   890 Zn172 c    -20.894554           0.004328    0.282120    0.115717
   891 Zn172 c    -20.663426           0.507080   -0.003336   -0.139177
   892 Zn172 c    -20.911709          -0.000844    0.307777   -0.051152
   893 Zn172 c    -20.669274          -0.513176   -0.005445   -0.149414
   894 Zn172 c    -20.912891          -0.000918   -0.307504   -0.052478
-------------------------------------------------------------------------------

  Total time to end of lattice properties =    4205.4037 s


  Peak dynamic memory used =     148.21 MB 


  Timing analysis for GULP :

--------------------------------------------------------------------------------
  Task / Subroutine                                          Time (Seconds)
--------------------------------------------------------------------------------
  Calculation of reciprocal space energy and derivatives        381.2865
  Calculation of real space energy and derivatives              265.4713
  Calculation of three-body energy and derivatives                0.7400
  Calculation of four-body energy and derivatives                 0.8104
  Calculation of molecules and connectivity                       0.3449
  Calculation of phonons                                         49.2816
  Calculation of scattering                                       0.0000
  Calculation of matrix inversion                                32.1627
  Symmetry generation of equivalent positions                     0.0129
  Global summation overhead                                       0.0006
--------------------------------------------------------------------------------
  Total CPU time                                               4205.4038
--------------------------------------------------------------------------------


  Dump file written as fit1.res                                                


  Job Finished at 14:18.32 18th May        2016                               

