********************************************************************************
*                       GENERAL UTILITY LATTICE PROGRAM                        *
*                                 Julian Gale                                  *
*                      Nanochemistry Research Institute                        *
*                           Department of Chemistry                            *
*                    Curtin University, Western Australia                      *
********************************************************************************
* Version = 4.4.0 * Last modified = 31st March 2015                            *
********************************************************************************
*  optimise     - perform optimisation run                                     *
*  conv         - constant volume calculation                                  *
*  property     - calculate properties for final geometry                      *
*  phonon       - calculate phonons for final geometry                         *
*  potential    - calculate electrostatic site potentials                      *
*  molmec       - molecule option activated, Coulomb subtract 1-2/1-3 terms    *
*  fix_molecule - fix atoms of molecule as at the start of the run             *
*  compare      - compare initial and final structures                         *
********************************************************************************

  Job Started  at 09:41.11 18th May        2016                               

  Number of CPUs =     1


  Total number of configurations input =   1

********************************************************************************
*  Input for Configuration =   1                                               *
********************************************************************************

  Formula = Ti180O446H84C160Zn24                                        

  Number of irreducible atoms/shells =     894


  Total number atoms/shells =     894

  Dimensionality = 3               :  Bulk   



  Cartesian lattice vectors (Angstroms) :

       17.724000    0.000000    0.000000
        0.000000   19.461000    0.000000
        0.000000    0.000000  114.868482

  Cell parameters (Angstroms/Degrees):

  a =      17.7240    alpha =  90.0000
  b =      19.4610    beta  =  90.0000
  c =     114.8685    gamma =  90.0000

  Initial cell volume =       39621.213782 Angs**3

  Temperature of configuration =  0.000     K 

  Pressure of configuration =         0.000 GPa 

  Fractional coordinates of asymmetric unit :

--------------------------------------------------------------------------------
   No.  Atomic       x           y          z         Charge      Occupancy
        Label      (Frac)      (Frac)     (Frac)        (e)         (Frac)  
--------------------------------------------------------------------------------
      1 Ti    c    0.320000    0.733333    0.339268     2.43600    1.000000    
      2 Ti    c    0.148783 *  0.399280 *  0.341320 *   2.43600    1.000000    
      3 Ti    c    0.981999 *  0.399822 *  0.341320 *   2.43600    1.000000    
      4 Ti    c    0.815070 *  0.399939 *  0.341392 *   2.43600    1.000000    
      5 Ti    c    0.650200 *  0.399590 *  0.339843 *   2.43600    1.000000    
      6 Ti    c    0.481079 *  0.400011 *  0.339984 *   2.43600    1.000000    
      7 Ti    c    0.316098 *  0.399488 *  0.341363 *   2.43600    1.000000    
      8 Ti    c    0.148641 *  0.065894 *  0.340812 *   2.43600    1.000000    
      9 Ti    c    0.982193 *  0.065942 *  0.341276 *   2.43600    1.000000    
     10 Ti    c    0.815558 *  0.066295 *  0.341295 *   2.43600    1.000000    
     11 Ti    c    0.648919 *  0.065818 *  0.341223 *   2.43600    1.000000    
     12 Ti    c    0.481859 *  0.065951 *  0.341239 *   2.43600    1.000000    
     13 Ti    c    0.315432 *  0.065856 *  0.341249 *   2.43600    1.000000    
     14 Ti    c    0.143898 *  0.733417 *  0.338652 *   2.43600    1.000000    
     15 Ti    c    0.981359 *  0.733220 *  0.341407 *   2.43600    1.000000    
     16 Ti    c    0.815520 *  0.732761 *  0.341387 *   2.43600    1.000000    
     17 Ti    c    0.649130 *  0.732084 *  0.341384 *   2.43600    1.000000    
     18 Ti    c    0.483032 *  0.731873 *  0.341465 *   2.43600    1.000000    
     19 Ti    c    0.065428 *  0.232319 *  0.339124 *   2.43600    1.000000    
     20 Ti    c    0.898503 *  0.232938 *  0.339151 *   2.43600    1.000000    
     21 Ti    c    0.731729 *  0.233526 *  0.339080 *   2.43600    1.000000    
     22 Ti    c    0.899642 *  0.899396 *  0.339146 *   2.43600    1.000000    
     23 Ti    c    0.565086 *  0.898391 *  0.339150 *   2.43600    1.000000    
     24 Ti    c    0.397845 *  0.899352 *  0.339162 *   2.43600    1.000000    
     25 Ti    c    0.898560 *  0.566430 *  0.339033 *   2.43600    1.000000    
     26 Ti    c    0.565467 *  0.564965 *  0.340453 *   2.43600    1.000000    
     27 Ti    c    0.398967 *  0.567060 *  0.338867 *   2.43600    1.000000    
     28 Ti    c    0.232494 *  0.231979 *  0.339091 *   2.43600    1.000000    
     29 Ti    c    0.565525 *  0.230828 *  0.339382 *   2.43600    1.000000    
     30 Ti    c    0.399280 *  0.233482 *  0.339110 *   2.43600    1.000000    
     31 Ti    c    0.231047 *  0.900908 *  0.340596 *   2.43600    1.000000    
     32 Ti    c    0.066131 *  0.899860 *  0.340699 *   2.43600    1.000000    
     33 Ti    c    0.732402 *  0.899273 *  0.339189 *   2.43600    1.000000    
     34 Ti    c    0.232395 *  0.563959 *  0.338656 *   2.43600    1.000000    
     35 Ti    c    0.065455 *  0.567356 *  0.339047 *   2.43600    1.000000    
     36 Ti    c    0.731969 *  0.566608 *  0.338844 *   2.43600    1.000000    
     37 Ti    c    0.315475 *  0.566181 *  0.311578 *   2.43600    1.000000    
     38 Ti    c    0.148831 *  0.232844 *  0.311972 *   2.43600    1.000000    
     39 Ti    c    0.982077 *  0.232907 *  0.311974 *   2.43600    1.000000    
     40 Ti    c    0.815535 *  0.232772 *  0.311903 *   2.43600    1.000000    
     41 Ti    c    0.648758 *  0.232567 *  0.312022 *   2.43600    1.000000    
     42 Ti    c    0.482248 *  0.232562 *  0.312030 *   2.43600    1.000000    
     43 Ti    c    0.315482 *  0.232773 *  0.311880 *   2.43600    1.000000    
     44 Ti    c    0.148717 *  0.899727 *  0.313401 *   2.43600    1.000000    
     45 Ti    c    0.982315 *  0.899598 *  0.312461 *   2.43600    1.000000    
     46 Ti    c    0.815399 *  0.899411 *  0.311988 *   2.43600    1.000000    
     47 Ti    c    0.648836 *  0.899194 *  0.312018 *   2.43600    1.000000    
     48 Ti    c    0.482285 *  0.899260 *  0.311932 *   2.43600    1.000000    
     49 Ti    c    0.315276 *  0.899560 *  0.312456 *   2.43600    1.000000    
     50 Ti    c    0.148600 *  0.566131 *  0.311741 *   2.43600    1.000000    
     51 Ti    c    0.982034 *  0.566097 *  0.311837 *   2.43600    1.000000    
     52 Ti    c    0.815657 *  0.566272 *  0.311752 *   2.43600    1.000000    
     53 Ti    c    0.648500 *  0.565820 *  0.312421 *   2.43600    1.000000    
     54 Ti    c    0.482607 *  0.565761 *  0.312391 *   2.43600    1.000000    
     55 Ti    c    0.400485 *  0.732420 *  0.312184 *   2.43600    1.000000    
     56 Ti    c    0.231967 *  0.399446 *  0.312707 *   2.43600    1.000000    
     57 Ti    c    0.065501 *  0.399300 *  0.312735 *   2.43600    1.000000    
     58 Ti    c    0.899035 *  0.399521 *  0.312738 *   2.43600    1.000000    
     59 Ti    c    0.733014 *  0.399104 *  0.312398 *   2.43600    1.000000    
     60 Ti    c    0.565443 *  0.399102 *  0.312397 *   2.43600    1.000000    
     61 Ti    c    0.398061 *  0.398892 *  0.312416 *   2.43600    1.000000    
     62 Ti    c    0.232291 *  0.066259 *  0.312721 *   2.43600    1.000000    
     63 Ti    c    0.065336 *  0.066291 *  0.312733 *   2.43600    1.000000    
     64 Ti    c    0.898760 *  0.066168 *  0.312773 *   2.43600    1.000000    
     65 Ti    c    0.732140 *  0.065903 *  0.312752 *   2.43600    1.000000    
     66 Ti    c    0.565463 *  0.065889 *  0.312740 *   2.43600    1.000000    
     67 Ti    c    0.398835 *  0.066045 *  0.312747 *   2.43600    1.000000    
     68 Ti    c    0.232288 *  0.733027 *  0.312246 *   2.43600    1.000000    
     69 Ti    c    0.063574 *  0.732934 *  0.312072 *   2.43600    1.000000    
     70 Ti    c    0.898295 *  0.732891 *  0.312752 *   2.43600    1.000000    
     71 Ti    c    0.732155 *  0.732481 *  0.312784 *   2.43600    1.000000    
     72 Ti    c    0.565998 *  0.732448 *  0.312824 *   2.43600    1.000000    
     73 Ti    c    0.315511 *  0.732721 *  0.284599 *   2.43600    1.000000    
     74 Ti    c    0.148754 *  0.399430 *  0.284856 *   2.43600    1.000000    
     75 Ti    c    0.982212 *  0.399421 *  0.284869 *   2.43600    1.000000    
     76 Ti    c    0.815650 *  0.399381 *  0.284810 *   2.43600    1.000000    
     77 Ti    c    0.648827 *  0.399345 *  0.284673 *   2.43600    1.000000    
     78 Ti    c    0.482152 *  0.399341 *  0.284671 *   2.43600    1.000000    
     79 Ti    c    0.315350 *  0.399388 *  0.284801 *   2.43600    1.000000    
     80 Ti    c    0.148804 *  0.066044 *  0.284977 *   2.43600    1.000000    
     81 Ti    c    0.982150 *  0.066037 *  0.285002 *   2.43600    1.000000    
     82 Ti    c    0.815461 *  0.066022 *  0.284968 *   2.43600    1.000000    
     83 Ti    c    0.648813 *  0.066024 *  0.284930 *   2.43600    1.000000    
     84 Ti    c    0.482164 *  0.065983 *  0.284951 *   2.43600    1.000000    
     85 Ti    c    0.315482 *  0.066002 *  0.284990 *   2.43600    1.000000    
     86 Ti    c    0.148800 *  0.732822 *  0.284520 *   2.43600    1.000000    
     87 Ti    c    0.981822 *  0.732807 *  0.284751 *   2.43600    1.000000    
     88 Ti    c    0.815344 *  0.732705 *  0.284948 *   2.43600    1.000000    
     89 Ti    c    0.648846 *  0.732648 *  0.284937 *   2.43600    1.000000    
     90 Ti    c    0.482506 *  0.732676 *  0.284788 *   2.43600    1.000000    
     91 Ti    c    0.399294 *  0.566000 *  0.284870 *   2.43600    1.000000    
     92 Ti    c    0.232108 *  0.232668 *  0.284893 *   2.43600    1.000000    
     93 Ti    c    0.065484 *  0.232730 *  0.284916 *   2.43600    1.000000    
     94 Ti    c    0.898861 *  0.232697 *  0.284902 *   2.43600    1.000000    
     95 Ti    c    0.732114 *  0.232723 *  0.284899 *   2.43600    1.000000    
     96 Ti    c    0.565482 *  0.232690 *  0.284920 *   2.43600    1.000000    
     97 Ti    c    0.398872 *  0.232716 *  0.284900 *   2.43600    1.000000    
     98 Ti    c    0.231700 *  0.899366 *  0.285432 *   2.43600    1.000000    
     99 Ti    c    0.065879 *  0.899406 *  0.285441 *   2.43600    1.000000    
    100 Ti    c    0.899147 *  0.899400 *  0.285107 *   2.43600    1.000000    
    101 Ti    c    0.732208 *  0.899370 *  0.284963 *   2.43600    1.000000    
    102 Ti    c    0.565484 *  0.899333 *  0.284946 *   2.43600    1.000000    
    103 Ti    c    0.398449 *  0.899312 *  0.285072 *   2.43600    1.000000    
    104 Ti    c    0.232134 *  0.566060 *  0.284698 *   2.43600    1.000000    
    105 Ti    c    0.065362 *  0.566173 *  0.284754 *   2.43600    1.000000    
    106 Ti    c    0.898727 *  0.566002 *  0.284800 *   2.43600    1.000000    
    107 Ti    c    0.731802 *  0.565941 *  0.284946 *   2.43600    1.000000    
    108 Ti    c    0.565558 *  0.565912 *  0.285098 *   2.43600    1.000000    
    109 Ti    c    0.315603 *  0.566046 *  0.257725 *   2.43600    1.000000    
    110 Ti    c    0.148813 *  0.232719 *  0.257861 *   2.43600    1.000000    
    111 Ti    c    0.982158 *  0.232710 *  0.257863 *   2.43600    1.000000    
    112 Ti    c    0.815490 *  0.232700 *  0.257851 *   2.43600    1.000000    
    113 Ti    c    0.648812 *  0.232687 *  0.257849 *   2.43600    1.000000    
    114 Ti    c    0.482159 *  0.232692 *  0.257850 *   2.43600    1.000000    
    115 Ti    c    0.315492 *  0.232709 *  0.257846 *   2.43600    1.000000    
    116 Ti    c    0.148817 *  0.899374 *  0.258239 *   2.43600    1.000000    
    117 Ti    c    0.982333 *  0.899378 *  0.258130 *   2.43600    1.000000    
    118 Ti    c    0.815597 *  0.899388 *  0.257971 *   2.43600    1.000000    
    119 Ti    c    0.648824 *  0.899389 *  0.257908 *   2.43600    1.000000    
    120 Ti    c    0.482035 *  0.899375 *  0.257940 *   2.43600    1.000000    
    121 Ti    c    0.315285 *  0.899370 *  0.258098 *   2.43600    1.000000    
    122 Ti    c    0.148810 *  0.566055 *  0.257693 *   2.43600    1.000000    
    123 Ti    c    0.982092 *  0.566060 *  0.257741 *   2.43600    1.000000    
    124 Ti    c    0.815376 *  0.566035 *  0.257815 *   2.43600    1.000000    
    125 Ti    c    0.648749 *  0.566031 *  0.257916 *   2.43600    1.000000    
    126 Ti    c    0.482273 *  0.566042 *  0.257880 *   2.43600    1.000000    
    127 Ti    c    0.398968 *  0.732735 *  0.256966 *   2.43600    1.000000    
    128 Ti    c    0.232106 *  0.399379 *  0.257007 *   2.43600    1.000000    
    129 Ti    c    0.065476 *  0.399374 *  0.257034 *   2.43600    1.000000    
    130 Ti    c    0.898864 *  0.399381 *  0.257022 *   2.43600    1.000000    
    131 Ti    c    0.732228 *  0.399361 *  0.256979 *   2.43600    1.000000    
    132 Ti    c    0.565493 *  0.399356 *  0.256946 *   2.43600    1.000000    
    133 Ti    c    0.398756 *  0.399370 *  0.256967 *   2.43600    1.000000    
    134 Ti    c    0.232135 *  0.066042 *  0.257183 *   2.43600    1.000000    
    135 Ti    c    0.065492 *  0.066026 *  0.257190 *   2.43600    1.000000    
    136 Ti    c    0.898861 *  0.066013 *  0.257166 *   2.43600    1.000000    
    137 Ti    c    0.732179 *  0.066021 *  0.257134 *   2.43600    1.000000    
    138 Ti    c    0.565462 *  0.066008 *  0.257127 *   2.43600    1.000000    
    139 Ti    c    0.398770 *  0.066007 *  0.257153 *   2.43600    1.000000    
    140 Ti    c    0.232181 *  0.732717 *  0.256898 *   2.43600    1.000000    
    141 Ti    c    0.065326 *  0.732735 *  0.256946 *   2.43600    1.000000    
    142 Ti    c    0.898669 *  0.732740 *  0.257047 *   2.43600    1.000000    
    143 Ti    c    0.732140 *  0.732723 *  0.257106 *   2.43600    1.000000    
    144 Ti    c    0.565606 *  0.732743 *  0.257061 *   2.43600    1.000000    
    145 Ti    c    0.398951 *  0.566080 *  0.230627 *   2.43600    1.000000    
    146 Ti    c    0.315507 *  0.732833 *  0.228422 *   2.43600    1.000000    
    147 Ti    c    0.232141 *  0.232645 *  0.230687 *   2.43600    1.000000    
    148 Ti    c    0.148805 *  0.399351 *  0.228479 *   2.43600    1.000000    
    149 Ti    c    0.065488 *  0.232654 *  0.230695 *   2.43600    1.000000    
    150 Ti    c    0.982145 *  0.399352 *  0.228487 *   2.43600    1.000000    
    151 Ti    c    0.898836 *  0.232661 *  0.230690 *   2.43600    1.000000    
    152 Ti    c    0.815491 *  0.399354 *  0.228468 *   2.43600    1.000000    
    153 Ti    c    0.732164 *  0.232658 *  0.230678 *   2.43600    1.000000    
    154 Ti    c    0.648834 *  0.399353 *  0.228436 *   2.43600    1.000000    
    155 Ti    c    0.565485 *  0.232667 *  0.230673 *   2.43600    1.000000    
    156 Ti    c    0.482164 *  0.399355 *  0.228429 *   2.43600    1.000000    
    157 Ti    c    0.398813 *  0.232665 *  0.230677 *   2.43600    1.000000    
    158 Ti    c    0.315481 *  0.399356 *  0.228455 *   2.43600    1.000000    
    159 Ti    c    0.232040 *  0.899398 *  0.230944 *   2.43600    1.000000    
    160 Ti    c    0.148809 *  0.065952 *  0.228656 *   2.43600    1.000000    
    161 Ti    c    0.065564 *  0.899392 *  0.230960 *   2.43600    1.000000    
    162 Ti    c    0.982196 *  0.065955 *  0.228647 *   2.43600    1.000000    
    163 Ti    c    0.898968 *  0.899403 *  0.230855 *   2.43600    1.000000    
    164 Ti    c    0.815536 *  0.065968 *  0.228613 *   2.43600    1.000000    
    165 Ti    c    0.732229 *  0.899403 *  0.230765 *   2.43600    1.000000    
    166 Ti    c    0.648828 *  0.065976 *  0.228590 *   2.43600    1.000000    
    167 Ti    c    0.565442 *  0.899392 *  0.230749 *   2.43600    1.000000    
    168 Ti    c    0.482115 *  0.065965 *  0.228603 *   2.43600    1.000000    
    169 Ti    c    0.398666 *  0.899400 *  0.230823 *   2.43600    1.000000    
    170 Ti    c    0.315437 *  0.065956 *  0.228638 *   2.43600    1.000000    
    171 Ti    c    0.232200 *  0.566094 *  0.230548 *   2.43600    1.000000    
    172 Ti    c    0.148790 *  0.732846 *  0.228410 *   2.43600    1.000000    
    173 Ti    c    0.065434 *  0.566095 *  0.230558 *   2.43600    1.000000    
    174 Ti    c    0.982104 *  0.732843 *  0.228479 *   2.43600    1.000000    
    175 Ti    c    0.898725 *  0.566078 *  0.230615 *   2.43600    1.000000    
    176 Ti    c    0.815462 *  0.732819 *  0.228550 *   2.43600    1.000000    
    177 Ti    c    0.732072 *  0.566078 *  0.230687 *   2.43600    1.000000    
    178 Ti    c    0.648842 *  0.732806 *  0.228554 *   2.43600    1.000000    
    179 Ti    c    0.565528 *  0.566075 *  0.230708 *   2.43600    1.000000    
    180 Ti    c    0.482200 *  0.732818 *  0.228493 *   2.43600    1.000000    
    181 O2    c    0.394517 *  0.730355 *  0.349533 *  -1.21800    1.000000    
    182 O2    c    0.232725 *  0.402883 *  0.350045 *  -1.21800    1.000000    
    183 O2    c    0.065541 *  0.400534 *  0.350070 *  -1.21800    1.000000    
    184 O2    c    0.898324 *  0.400529 *  0.350119 *  -1.21800    1.000000    
    185 O2    c    0.728087 *  0.400462 *  0.349784 *  -1.21800    1.000000    
    186 O3    c    0.566705 *  0.232630 *  0.356059 *  -0.33800    1.000000    
    187 H22   c    0.566427 *  0.203894 *  0.362910 *   0.12000    1.000000    
    188 O2    c    0.402554 *  0.400722 *  0.349802 *  -1.21800    1.000000    
    189 O2    c    0.231454 *  0.067869 *  0.349792 *  -1.21800    1.000000    
    190 O2    c    0.066199 *  0.069327 *  0.349820 *  -1.21800    1.000000    
    191 O2    c    0.898664 *  0.068727 *  0.350049 *  -1.21800    1.000000    
    192 O2    c    0.731997 *  0.065875 *  0.350024 *  -1.21800    1.000000    
    193 O2    c    0.565426 *  0.067908 *  0.349944 *  -1.21800    1.000000    
    194 O2    c    0.398863 *  0.066942 *  0.350037 *  -1.21800    1.000000    
    195 O2    c    0.231083 *  0.733503 *  0.349824 *  -1.21800    1.000000    
    196 O3    c    0.070840 *  0.728031 *  0.349167 *  -0.33800    1.000000    
    197 H22   c    0.070840 *  0.728031 *  0.357873 *   0.12000    1.000000    
    198 O2    c    0.898894 *  0.730332 *  0.350228 *  -1.21800    1.000000    
    199 O2    c    0.732334 *  0.733134 *  0.350146 *  -1.21800    1.000000    
    200 O2    c    0.565579 *  0.733369 *  0.350209 *  -1.21800    1.000000    
    201 O2    c    0.149068 *  0.172986 *  0.340293 *  -1.21800    1.000000    
    202 O2    c    0.981459 *  0.173163 *  0.340507 *  -1.21800    1.000000    
    203 O2    c    0.814679 *  0.173020 *  0.340518 *  -1.21800    1.000000    
    204 O2    c    0.650191 *  0.172211 *  0.340270 *  -1.21800    1.000000    
    205 O2    c    0.481015 *  0.172413 *  0.340274 *  -1.21800    1.000000    
    206 O2    c    0.316475 *  0.173138 *  0.340554 *  -1.21800    1.000000    
    207 O2    c    0.150964 *  0.831096 *  0.338698 *  -1.21800    1.000000    
    208 O2    c    0.980017 *  0.836054 *  0.340493 *  -1.21800    1.000000    
    209 O2    c    0.815693 *  0.838400 *  0.340708 *  -1.21800    1.000000    
    210 O2    c    0.648804 *  0.838388 *  0.340625 *  -1.21800    1.000000    
    211 O2    c    0.480876 *  0.837560 *  0.340798 *  -1.21800    1.000000    
    212 O2    c    0.316682 *  0.833761 *  0.340186 *  -1.21800    1.000000    
    213 O2    c    0.982350 *  0.505977 *  0.340504 *  -1.21800    1.000000    
    214 O2    c    0.477246 *  0.502001 *  0.338856 *  -1.21800    1.000000    
    215 O2    c    0.316248 *  0.506362 *  0.340548 *  -1.21800    1.000000    
    216 O2    c    0.148266 *  0.506870 *  0.340522 *  -1.21800    1.000000    
    217 O2    c    0.815378 *  0.505193 *  0.340592 *  -1.21800    1.000000    
    218 O2    c    0.653317 *  0.501548 *  0.338913 *  -1.21800    1.000000    
    219 O2    c    0.312519 *  0.629189 *  0.340495 *  -1.21800    1.000000    
    220 O2    c    0.149462 *  0.294027 *  0.340708 *  -1.21800    1.000000    
    221 O2    c    0.982140 *  0.294155 *  0.340646 *  -1.21800    1.000000    
    222 O2    c    0.814891 *  0.294303 *  0.340838 *  -1.21800    1.000000    
    223 O2    c    0.647486 *  0.295910 *  0.340438 *  -1.21800    1.000000    
    224 O2    c    0.483413 *  0.296042 *  0.340500 *  -1.21800    1.000000    
    225 O2    c    0.315650 *  0.294408 *  0.340847 *  -1.21800    1.000000    
    226 O2    c    0.979386 *  0.961794 *  0.340379 *  -1.21800    1.000000    
    227 O2    c    0.482416 *  0.959393 *  0.340683 *  -1.21800    1.000000    
    228 O2    c    0.318112 *  0.960767 *  0.340403 *  -1.21800    1.000000    
    229 O2    c    0.152291 *  0.629069 *  0.340161 *  -1.21800    1.000000    
    230 O2    c    0.982309 *  0.626828 *  0.340611 *  -1.21800    1.000000    
    231 O2    c    0.815448 *  0.626666 *  0.340551 *  -1.21800    1.000000    
    232 O2    c    0.650125 *  0.626917 *  0.340570 *  -1.21800    1.000000    
    233 O2    c    0.480021 *  0.627333 *  0.340656 *  -1.21800    1.000000    
    234 O2    c    0.148961 *  0.964242 *  0.338861 *  -1.21800    1.000000    
    235 O2    c    0.815348 *  0.960065 *  0.340672 *  -1.21800    1.000000    
    236 O2    c    0.648303 *  0.959659 *  0.340627 *  -1.21800    1.000000    
    237 O2    c    0.401901 *  0.731273 *  0.328812 *  -1.21800    1.000000    
    238 O2    c    0.232341 *  0.400635 *  0.329405 *  -1.21800    1.000000    
    239 O2    c    0.065891 *  0.399670 *  0.329384 *  -1.21800    1.000000    
    240 O2    c    0.898828 *  0.399653 *  0.329407 *  -1.21800    1.000000    
    241 O2    c    0.734354 *  0.396805 *  0.329022 *  -1.21800    1.000000    
    242 O2    c    0.565317 *  0.396726 *  0.329478 *  -1.21800    1.000000    
    243 O2    c    0.396587 *  0.396944 *  0.329058 *  -1.21800    1.000000    
    244 O2    c    0.234008 *  0.069376 *  0.329162 *  -1.21800    1.000000    
    245 O2    c    0.063988 *  0.069374 *  0.329162 *  -1.21800    1.000000    
    246 O2    c    0.897685 *  0.066908 *  0.329328 *  -1.21800    1.000000    
    247 O2    c    0.731994 *  0.065601 *  0.329340 *  -1.21800    1.000000    
    248 O2    c    0.565437 *  0.065736 *  0.329326 *  -1.21800    1.000000    
    249 O2    c    0.399547 *  0.066011 *  0.329309 *  -1.21800    1.000000    
    250 O2    c    0.233604 *  0.729336 *  0.329899 *  -1.21800    1.000000    
    251 O2    c    0.060771 *  0.729168 *  0.328562 *  -1.21800    1.000000    
    252 O2    c    0.897786 *  0.731906 *  0.329407 *  -1.21800    1.000000    
    253 O2    c    0.732271 *  0.732429 *  0.329417 *  -1.21800    1.000000    
    254 O2    c    0.565499 *  0.733317 *  0.329487 *  -1.21800    1.000000    
    255 O2    c    0.396055 *  0.568270 *  0.322683 *  -1.21800    1.000000    
    256 O2    c    0.232673 *  0.233761 *  0.322819 *  -1.21800    1.000000    
    257 O2    c    0.065463 *  0.233714 *  0.322832 *  -1.21800    1.000000    
    258 O2    c    0.898400 *  0.233661 *  0.322856 *  -1.21800    1.000000    
    259 O2    c    0.732277 *  0.234024 *  0.322824 *  -1.21800    1.000000    
    260 O2    c    0.565483 *  0.232969 *  0.322950 *  -1.21800    1.000000    
    261 O2    c    0.398638 *  0.234155 *  0.322838 *  -1.21800    1.000000    
    262 O2    c    0.235333 *  0.898852 *  0.323470 *  -1.21800    1.000000    
    263 O2    c    0.062678 *  0.898344 *  0.323528 *  -1.21800    1.000000    
    264 O2    c    0.897116 *  0.899022 *  0.322893 *  -1.21800    1.000000    
    265 O2    c    0.731873 *  0.899304 *  0.322898 *  -1.21800    1.000000    
    266 O2    c    0.565290 *  0.898687 *  0.322880 *  -1.21800    1.000000    
    267 O2    c    0.400508 *  0.898398 *  0.322917 *  -1.21800    1.000000    
    268 O2    c    0.232340 *  0.565730 *  0.322553 *  -1.21800    1.000000    
    269 O2    c    0.066035 *  0.567083 *  0.322773 *  -1.21800    1.000000    
    270 O2    c    0.899106 *  0.566148 *  0.322753 *  -1.21800    1.000000    
    271 O2    c    0.734220 *  0.566984 *  0.322663 *  -1.21800    1.000000    
    272 O2    c    0.565169 *  0.566794 *  0.323340 *  -1.21800    1.000000    
    273 O2    c    0.315037 *  0.667940 *  0.312337 *  -1.21800    1.000000    
    274 O2    c    0.315407 *  0.465115 *  0.312222 *  -1.21800    1.000000    
    275 O2    c    0.148952 *  0.334299 *  0.312431 *  -1.21800    1.000000    
    276 O2    c    0.148932 *  0.132153 *  0.312305 *  -1.21800    1.000000    
    277 O2    c    0.982190 *  0.334256 *  0.312410 *  -1.21800    1.000000    
    278 O2    c    0.981644 *  0.132209 *  0.312280 *  -1.21800    1.000000    
    279 O2    c    0.816037 *  0.333920 *  0.312152 *  -1.21800    1.000000    
    280 O2    c    0.815063 *  0.131923 *  0.312383 *  -1.21800    1.000000    
    281 O2    c    0.648632 *  0.334190 *  0.312397 *  -1.21800    1.000000    
    282 O2    c    0.648758 *  0.131678 *  0.312439 *  -1.21800    1.000000    
    283 O2    c    0.482297 *  0.334203 *  0.312388 *  -1.21800    1.000000    
    284 O2    c    0.482294 *  0.131765 *  0.312411 *  -1.21800    1.000000    
    285 O2    c    0.314905 *  0.334056 *  0.312179 *  -1.21800    1.000000    
    286 O2    c    0.316147 *  0.132130 *  0.312258 *  -1.21800    1.000000    
    287 O2    c    0.148940 *  0.001077 *  0.312644 *  -1.21800    1.000000    
    288 O2    c    0.149060 *  0.796301 *  0.312953 *  -1.21800    1.000000    
    289 O2    c    0.981945 *  0.000914 *  0.312431 *  -1.21800    1.000000    
    290 O2    c    0.981204 *  0.797949 *  0.312156 *  -1.21800    1.000000    
    291 O2    c    0.815228 *  0.000677 *  0.312369 *  -1.21800    1.000000    
    292 O2    c    0.814993 *  0.798052 *  0.312393 *  -1.21800    1.000000    
    293 O2    c    0.648661 *  0.000421 *  0.312420 *  -1.21800    1.000000    
    294 O2    c    0.648900 *  0.798007 *  0.312438 *  -1.21800    1.000000    
    295 O2    c    0.482214 *  0.000400 *  0.312358 *  -1.21800    1.000000    
    296 O2    c    0.482786 *  0.797930 *  0.312148 *  -1.21800    1.000000    
    297 O2    c    0.315836 *  0.000711 *  0.312405 *  -1.21800    1.000000    
    298 O2    c    0.315716 *  0.796628 *  0.312713 *  -1.21800    1.000000    
    299 O2    c    0.149277 *  0.667886 *  0.312503 *  -1.21800    1.000000    
    300 O2    c    0.148813 *  0.465260 *  0.312374 *  -1.21800    1.000000    
    301 O2    c    0.981254 *  0.666722 *  0.311931 *  -1.21800    1.000000    
    302 O2    c    0.982562 *  0.465136 *  0.312415 *  -1.21800    1.000000    
    303 O2    c    0.815582 *  0.667211 *  0.312259 *  -1.21800    1.000000    
    304 O2    c    0.815730 *  0.464877 *  0.312260 *  -1.21800    1.000000    
    305 O2    c    0.648830 *  0.667074 *  0.312510 *  -1.21800    1.000000    
    306 O2    c    0.648612 *  0.463896 *  0.312606 *  -1.21800    1.000000    
    307 O2    c    0.482810 *  0.666843 *  0.312213 *  -1.21800    1.000000    
    308 O2    c    0.481928 *  0.464092 *  0.312592 *  -1.21800    1.000000    
    309 O2    c    0.399874 *  0.565895 *  0.301446 *  -1.21800    1.000000    
    310 O2    c    0.232021 *  0.232984 *  0.301432 *  -1.21800    1.000000    
    311 O2    c    0.065498 *  0.233305 *  0.301463 *  -1.21800    1.000000    
    312 O2    c    0.898878 *  0.232919 *  0.301441 *  -1.21800    1.000000    
    313 O2    c    0.731805 *  0.233022 *  0.301461 *  -1.21800    1.000000    
    314 O2    c    0.565492 *  0.233154 *  0.301513 *  -1.21800    1.000000    
    315 O2    c    0.399235 *  0.233276 *  0.301460 *  -1.21800    1.000000    
    316 O2    c    0.231066 *  0.897976 *  0.302077 *  -1.21800    1.000000    
    317 O2    c    0.066923 *  0.898585 *  0.302075 *  -1.21800    1.000000    
    318 O2    c    0.899324 *  0.899579 *  0.301613 *  -1.21800    1.000000    
    319 O2    c    0.732020 *  0.899369 *  0.301502 *  -1.21800    1.000000    
    320 O2    c    0.565649 *  0.899470 *  0.301484 *  -1.21800    1.000000    
    321 O2    c    0.397890 *  0.898552 *  0.301627 *  -1.21800    1.000000    
    322 O2    c    0.231857 *  0.566904 *  0.301265 *  -1.21800    1.000000    
    323 O2    c    0.065601 *  0.566495 *  0.301347 *  -1.21800    1.000000    
    324 O2    c    0.898866 *  0.565459 *  0.301333 *  -1.21800    1.000000    
    325 O2    c    0.731070 *  0.565332 *  0.301483 *  -1.21800    1.000000    
    326 O2    c    0.565586 *  0.564725 *  0.301748 *  -1.21800    1.000000    
    327 O2    c    0.398384 *  0.732410 *  0.295485 *  -1.21800    1.000000    
    328 O2    c    0.232114 *  0.399817 *  0.295662 *  -1.21800    1.000000    
    329 O2    c    0.065588 *  0.399619 *  0.295703 *  -1.21800    1.000000    
    330 O2    c    0.898946 *  0.399695 *  0.295668 *  -1.21800    1.000000    
    331 O2    c    0.731799 *  0.399415 *  0.295559 *  -1.21800    1.000000    
    332 O2    c    0.565411 *  0.399471 *  0.295557 *  -1.21800    1.000000    
    333 O2    c    0.399101 *  0.399441 *  0.295563 *  -1.21800    1.000000    
    334 O2    c    0.232208 *  0.066232 *  0.295750 *  -1.21800    1.000000    
    335 O2    c    0.065544 *  0.066307 *  0.295755 *  -1.21800    1.000000    
    336 O2    c    0.898602 *  0.066309 *  0.295747 *  -1.21800    1.000000    
    337 O2    c    0.731929 *  0.066157 *  0.295740 *  -1.21800    1.000000    
    338 O2    c    0.565538 *  0.066188 *  0.295739 *  -1.21800    1.000000    
    339 O2    c    0.399046 *  0.066171 *  0.295738 *  -1.21800    1.000000    
    340 O2    c    0.231998 *  0.732657 *  0.295492 *  -1.21800    1.000000    
    341 O2    c    0.066190 *  0.732459 *  0.295435 *  -1.21800    1.000000    
    342 O2    c    0.898859 *  0.732660 *  0.295638 *  -1.21800    1.000000    
    343 O2    c    0.731956 *  0.732522 *  0.295739 *  -1.21800    1.000000    
    344 O2    c    0.565422 *  0.732453 *  0.295704 *  -1.21800    1.000000    
    345 O2    c    0.315587 *  0.501430 *  0.284912 *  -1.21800    1.000000    
    346 O2    c    0.315667 *  0.630760 *  0.284865 *  -1.21800    1.000000    
    347 O2    c    0.148818 *  0.168053 *  0.284900 *  -1.21800    1.000000    
    348 O2    c    0.148879 *  0.297723 *  0.284873 *  -1.21800    1.000000    
    349 O2    c    0.982168 *  0.168039 *  0.284903 *  -1.21800    1.000000    
    350 O2    c    0.982169 *  0.297688 *  0.284879 *  -1.21800    1.000000    
    351 O2    c    0.815379 *  0.168035 *  0.284924 *  -1.21800    1.000000    
    352 O2    c    0.815457 *  0.297611 *  0.284876 *  -1.21800    1.000000    
    353 O2    c    0.648725 *  0.167991 *  0.284917 *  -1.21800    1.000000    
    354 O2    c    0.648721 *  0.297624 *  0.284850 *  -1.21800    1.000000    
    355 O2    c    0.482213 *  0.167988 *  0.284922 *  -1.21800    1.000000    
    356 O2    c    0.482203 *  0.297651 *  0.284839 *  -1.21800    1.000000    
    357 O2    c    0.315612 *  0.168063 *  0.284935 *  -1.21800    1.000000    
    358 O2    c    0.315501 *  0.297660 *  0.284877 *  -1.21800    1.000000    
    359 O2    c    0.148886 *  0.834126 *  0.284968 *  -1.21800    1.000000    
    360 O2    c    0.148916 *  0.964280 *  0.285124 *  -1.21800    1.000000    
    361 O2    c    0.982535 *  0.834460 *  0.285044 *  -1.21800    1.000000    
    362 O2    c    0.982555 *  0.964139 *  0.285149 *  -1.21800    1.000000    
    363 O2    c    0.815552 *  0.834568 *  0.284999 *  -1.21800    1.000000    
    364 O2    c    0.815522 *  0.964156 *  0.284998 *  -1.21800    1.000000    
    365 O2    c    0.648788 *  0.834499 *  0.284934 *  -1.21800    1.000000    
    366 O2    c    0.648777 *  0.964191 *  0.284919 *  -1.21800    1.000000    
    367 O2    c    0.481977 *  0.834476 *  0.284966 *  -1.21800    1.000000    
    368 O2    c    0.481942 *  0.964005 *  0.285031 *  -1.21800    1.000000    
    369 O2    c    0.315127 *  0.834287 *  0.285037 *  -1.21800    1.000000    
    370 O2    c    0.315156 *  0.964006 *  0.285170 *  -1.21800    1.000000    
    371 O2    c    0.148808 *  0.501424 *  0.284831 *  -1.21800    1.000000    
    372 O2    c    0.148879 *  0.630937 *  0.284732 *  -1.21800    1.000000    
    373 O2    c    0.982295 *  0.501308 *  0.284818 *  -1.21800    1.000000    
    374 O2    c    0.982105 *  0.630864 *  0.284766 *  -1.21800    1.000000    
    375 O2    c    0.815327 *  0.501195 *  0.284862 *  -1.21800    1.000000    
    376 O2    c    0.815279 *  0.630641 *  0.284946 *  -1.21800    1.000000    
    377 O2    c    0.648598 *  0.500948 *  0.284828 *  -1.21800    1.000000    
    378 O2    c    0.648544 *  0.630755 *  0.284939 *  -1.21800    1.000000    
    379 O2    c    0.482274 *  0.501034 *  0.284838 *  -1.21800    1.000000    
    380 O2    c    0.482388 *  0.630826 *  0.284877 *  -1.21800    1.000000    
    381 O2    c    0.399094 *  0.732658 *  0.273956 *  -1.21800    1.000000    
    382 O2    c    0.232099 *  0.399682 *  0.274031 *  -1.21800    1.000000    
    383 O2    c    0.065522 *  0.399533 *  0.274053 *  -1.21800    1.000000    
    384 O2    c    0.898939 *  0.399486 *  0.274035 *  -1.21800    1.000000    
    385 O2    c    0.732358 *  0.399300 *  0.273973 *  -1.21800    1.000000    
    386 O2    c    0.565452 *  0.399186 *  0.273937 *  -1.21800    1.000000    
    387 O2    c    0.398565 *  0.399496 *  0.273973 *  -1.21800    1.000000    
    388 O2    c    0.232251 *  0.066186 *  0.274168 *  -1.21800    1.000000    
    389 O2    c    0.065459 *  0.066149 *  0.274168 *  -1.21800    1.000000    
    390 O2    c    0.898862 *  0.065969 *  0.274161 *  -1.21800    1.000000    
    391 O2    c    0.732172 *  0.066075 *  0.274134 *  -1.21800    1.000000    
    392 O2    c    0.565391 *  0.065955 *  0.274131 *  -1.21800    1.000000    
    393 O2    c    0.398750 *  0.065879 *  0.274155 *  -1.21800    1.000000    
    394 O2    c    0.232358 *  0.732260 *  0.273886 *  -1.21800    1.000000    
    395 O2    c    0.065119 *  0.732445 *  0.273909 *  -1.21800    1.000000    
    396 O2    c    0.898437 *  0.732658 *  0.274043 *  -1.21800    1.000000    
    397 O2    c    0.732137 *  0.732648 *  0.274116 *  -1.21800    1.000000    
    398 O2    c    0.565702 *  0.732879 *  0.274063 *  -1.21800    1.000000    
    399 O2    c    0.398611 *  0.566034 *  0.268309 *  -1.21800    1.000000    
    400 O2    c    0.232222 *  0.232844 *  0.268343 *  -1.21800    1.000000    
    401 O2    c    0.065503 *  0.232881 *  0.268352 *  -1.21800    1.000000    
    402 O2    c    0.898778 *  0.232822 *  0.268347 *  -1.21800    1.000000    
    403 O2    c    0.732116 *  0.232815 *  0.268341 *  -1.21800    1.000000    
    404 O2    c    0.565473 *  0.232785 *  0.268345 *  -1.21800    1.000000    
    405 O2    c    0.398830 *  0.232825 *  0.268342 *  -1.21800    1.000000    
    406 O2    c    0.232364 *  0.899263 *  0.268679 *  -1.21800    1.000000    
    407 O2    c    0.065407 *  0.899322 *  0.268686 *  -1.21800    1.000000    
    408 O2    c    0.898719 *  0.899322 *  0.268524 *  -1.21800    1.000000    
    409 O2    c    0.732090 *  0.899302 *  0.268413 *  -1.21800    1.000000    
    410 O2    c    0.565422 *  0.899308 *  0.268402 *  -1.21800    1.000000    
    411 O2    c    0.398886 *  0.899271 *  0.268501 *  -1.21800    1.000000    
    412 O2    c    0.232212 *  0.566053 *  0.268205 *  -1.21800    1.000000    
    413 O2    c    0.065596 *  0.566068 *  0.268216 *  -1.21800    1.000000    
    414 O2    c    0.898851 *  0.566012 *  0.268270 *  -1.21800    1.000000    
    415 O2    c    0.732227 *  0.566026 *  0.268362 *  -1.21800    1.000000    
    416 O2    c    0.565401 *  0.565985 *  0.268418 *  -1.21800    1.000000    
    417 O2    c    0.315588 *  0.667168 *  0.257300 *  -1.21800    1.000000    
    418 O2    c    0.315453 *  0.464950 *  0.257316 *  -1.21800    1.000000    
    419 O2    c    0.148841 *  0.333924 *  0.257382 *  -1.21800    1.000000    
    420 O2    c    0.148839 *  0.131625 *  0.257471 *  -1.21800    1.000000    
    421 O2    c    0.982175 *  0.333900 *  0.257377 *  -1.21800    1.000000    
    422 O2    c    0.982148 *  0.131618 *  0.257464 *  -1.21800    1.000000    
    423 O2    c    0.815538 *  0.333864 *  0.257352 *  -1.21800    1.000000    
    424 O2    c    0.815488 *  0.131596 *  0.257457 *  -1.21800    1.000000    
    425 O2    c    0.648833 *  0.333865 *  0.257339 *  -1.21800    1.000000    
    426 O2    c    0.648784 *  0.131580 *  0.257452 *  -1.21800    1.000000    
    427 O2    c    0.482096 *  0.333889 *  0.257344 *  -1.21800    1.000000    
    428 O2    c    0.482121 *  0.131578 *  0.257458 *  -1.21800    1.000000    
    429 O2    c    0.315442 *  0.333908 *  0.257358 *  -1.21800    1.000000    
    430 O2    c    0.315525 *  0.131614 *  0.257461 *  -1.21800    1.000000    
    431 O2    c    0.148862 *  0.000505 *  0.257591 *  -1.21800    1.000000    
    432 O2    c    0.148840 *  0.798091 *  0.257476 *  -1.21800    1.000000    
    433 O2    c    0.982198 *  0.000498 *  0.257550 *  -1.21800    1.000000    
    434 O2    c    0.982060 *  0.798186 *  0.257449 *  -1.21800    1.000000    
    435 O2    c    0.815501 *  0.000520 *  0.257492 *  -1.21800    1.000000    
    436 O2    c    0.815420 *  0.798239 *  0.257428 *  -1.21800    1.000000    
    437 O2    c    0.648792 *  0.000527 *  0.257466 *  -1.21800    1.000000    
    438 O2    c    0.648846 *  0.798246 *  0.257410 *  -1.21800    1.000000    
    439 O2    c    0.482091 *  0.000491 *  0.257484 *  -1.21800    1.000000    
    440 O2    c    0.482202 *  0.798216 *  0.257397 *  -1.21800    1.000000    
    441 O2    c    0.315452 *  0.000480 *  0.257542 *  -1.21800    1.000000    
    442 O2    c    0.315518 *  0.798130 *  0.257430 *  -1.21800    1.000000    
    443 O2    c    0.148825 *  0.667184 *  0.257280 *  -1.21800    1.000000    
    444 O2    c    0.148836 *  0.464960 *  0.257321 *  -1.21800    1.000000    
    445 O2    c    0.982021 *  0.667149 *  0.257310 *  -1.21800    1.000000    
    446 O2    c    0.982194 *  0.464941 *  0.257336 *  -1.21800    1.000000    
    447 O2    c    0.815405 *  0.667128 *  0.257382 *  -1.21800    1.000000    
    448 O2    c    0.815516 *  0.464898 *  0.257346 *  -1.21800    1.000000    
    449 O2    c    0.648810 *  0.667146 *  0.257423 *  -1.21800    1.000000    
    450 O2    c    0.648813 *  0.464848 *  0.257370 *  -1.21800    1.000000    
    451 O2    c    0.482245 *  0.667166 *  0.257382 *  -1.21800    1.000000    
    452 O2    c    0.482109 *  0.464876 *  0.257358 *  -1.21800    1.000000    
    453 O2    c    0.399095 *  0.566052 *  0.246917 *  -1.21800    1.000000    
    454 O2    c    0.232150 *  0.232768 *  0.246969 *  -1.21800    1.000000    
    455 O2    c    0.065502 *  0.232773 *  0.246977 *  -1.21800    1.000000    
    456 O2    c    0.898838 *  0.232728 *  0.246971 *  -1.21800    1.000000    
    457 O2    c    0.732142 *  0.232689 *  0.246962 *  -1.21800    1.000000    
    458 O2    c    0.565465 *  0.232720 *  0.246961 *  -1.21800    1.000000    
    459 O2    c    0.398827 *  0.232757 *  0.246962 *  -1.21800    1.000000    
    460 O2    c    0.231927 *  0.899212 *  0.247233 *  -1.21800    1.000000    
    461 O2    c    0.065704 *  0.899240 *  0.247246 *  -1.21800    1.000000    
    462 O2    c    0.899115 *  0.899381 *  0.247137 *  -1.21800    1.000000    
    463 O2    c    0.732265 *  0.899468 *  0.247046 *  -1.21800    1.000000    
    464 O2    c    0.565382 *  0.899424 *  0.247034 *  -1.21800    1.000000    
    465 O2    c    0.398501 *  0.899311 *  0.247111 *  -1.21800    1.000000    
    466 O2    c    0.232255 *  0.566138 *  0.246839 *  -1.21800    1.000000    
    467 O2    c    0.065421 *  0.566107 *  0.246845 *  -1.21800    1.000000    
    468 O2    c    0.898651 *  0.566012 *  0.246898 *  -1.21800    1.000000    
    469 O2    c    0.731947 *  0.565961 *  0.246970 *  -1.21800    1.000000    
    470 O2    c    0.565535 *  0.565967 *  0.246995 *  -1.21800    1.000000    
    471 O2    c    0.398756 *  0.732711 *  0.240397 *  -1.21800    1.000000    
    472 O2    c    0.232189 *  0.399345 *  0.240405 *  -1.21800    1.000000    
    473 O2    c    0.065517 *  0.399349 *  0.240422 *  -1.21800    1.000000    
    474 O2    c    0.898810 *  0.399374 *  0.240416 *  -1.21800    1.000000    
    475 O2    c    0.732102 *  0.399395 *  0.240391 *  -1.21800    1.000000    
    476 O2    c    0.565458 *  0.399406 *  0.240373 *  -1.21800    1.000000    
    477 O2    c    0.398845 *  0.399373 *  0.240381 *  -1.21800    1.000000    
    478 O2    c    0.232175 *  0.066034 *  0.240582 *  -1.21800    1.000000    
    479 O2    c    0.065516 *  0.066024 *  0.240586 *  -1.21800    1.000000    
    480 O2    c    0.898812 *  0.066053 *  0.240561 *  -1.21800    1.000000    
    481 O2    c    0.732124 *  0.066071 *  0.240532 *  -1.21800    1.000000    
    482 O2    c    0.565461 *  0.066067 *  0.240528 *  -1.21800    1.000000    
    483 O2    c    0.398825 *  0.066051 *  0.240552 *  -1.21800    1.000000    
    484 O2    c    0.232158 *  0.732783 *  0.240354 *  -1.21800    1.000000    
    485 O2    c    0.065576 *  0.732789 *  0.240385 *  -1.21800    1.000000    
    486 O2    c    0.898867 *  0.732731 *  0.240451 *  -1.21800    1.000000    
    487 O2    c    0.732129 *  0.732666 *  0.240492 *  -1.21800    1.000000    
    488 O2    c    0.565415 *  0.732659 *  0.240463 *  -1.21800    1.000000    
    489 O2    c    0.315604 *  0.505434 *  0.229184 *  -1.21800    1.000000    
    490 O2    c    0.148821 *  0.172000 *  0.229313 *  -1.21800    1.000000    
    491 O2    c    0.982163 *  0.171997 *  0.229305 *  -1.21800    1.000000    
    492 O2    c    0.815500 *  0.171995 *  0.229283 *  -1.21800    1.000000    
    493 O2    c    0.648809 *  0.171993 *  0.229270 *  -1.21800    1.000000    
    494 O2    c    0.482140 *  0.171993 *  0.229276 *  -1.21800    1.000000    
    495 O2    c    0.315493 *  0.171999 *  0.229299 *  -1.21800    1.000000    
    496 O2    c    0.148816 *  0.838684 *  0.229360 *  -1.21800    1.000000    
    497 O2    c    0.982311 *  0.838718 *  0.229374 *  -1.21800    1.000000    
    498 O2    c    0.815625 *  0.838758 *  0.229355 *  -1.21800    1.000000    
    499 O2    c    0.648835 *  0.838768 *  0.229330 *  -1.21800    1.000000    
    500 O2    c    0.482012 *  0.838757 *  0.229323 *  -1.21800    1.000000    
    501 O2    c    0.315308 *  0.838716 *  0.229339 *  -1.21800    1.000000    
    502 O2    c    0.148827 *  0.505442 *  0.229170 *  -1.21800    1.000000    
    503 O2    c    0.982076 *  0.505423 *  0.229181 *  -1.21800    1.000000    
    504 O2    c    0.815367 *  0.505401 *  0.229206 *  -1.21800    1.000000    
    505 O2    c    0.648777 *  0.505374 *  0.229214 *  -1.21800    1.000000    
    506 O2    c    0.482260 *  0.505387 *  0.229201 *  -1.21800    1.000000    
    507 O2    c    0.315618 *  0.626749 *  0.229163 *  -1.21800    1.000000    
    508 O2    c    0.148830 *  0.293344 *  0.229224 *  -1.21800    1.000000    
    509 O2    c    0.982171 *  0.293340 *  0.229232 *  -1.21800    1.000000    
    510 O2    c    0.815498 *  0.293330 *  0.229231 *  -1.21800    1.000000    
    511 O2    c    0.648820 *  0.293325 *  0.229220 *  -1.21800    1.000000    
    512 O2    c    0.482136 *  0.293333 *  0.229212 *  -1.21800    1.000000    
    513 O2    c    0.315472 *  0.293341 *  0.229215 *  -1.21800    1.000000    
    514 O2    c    0.148810 *  0.960074 *  0.229485 *  -1.21800    1.000000    
    515 O2    c    0.982320 *  0.960058 *  0.229456 *  -1.21800    1.000000    
    516 O2    c    0.815624 *  0.960044 *  0.229376 *  -1.21800    1.000000    
    517 O2    c    0.648825 *  0.960038 *  0.229331 *  -1.21800    1.000000    
    518 O2    c    0.482022 *  0.960029 *  0.229367 *  -1.21800    1.000000    
    519 O2    c    0.315309 *  0.960049 *  0.229445 *  -1.21800    1.000000    
    520 O2    c    0.148826 *  0.626748 *  0.229136 *  -1.21800    1.000000    
    521 O2    c    0.982062 *  0.626753 *  0.229176 *  -1.21800    1.000000    
    522 O2    c    0.815369 *  0.626754 *  0.229240 *  -1.21800    1.000000    
    523 O2    c    0.648773 *  0.626773 *  0.229263 *  -1.21800    1.000000    
    524 O2    c    0.482261 *  0.626776 *  0.229223 *  -1.21800    1.000000    
    525 O2    c    0.398967 *  0.732932 *  0.219742 *  -1.21800    1.000000    
    526 O2    c    0.232110 *  0.399505 *  0.219748 *  -1.21800    1.000000    
    527 O2    c    0.065466 *  0.399440 *  0.219763 *  -1.21800    1.000000    
    528 O2    c    0.898844 *  0.399368 *  0.219757 *  -1.21800    1.000000    
    529 O2    c    0.732210 *  0.399264 *  0.219733 *  -1.21800    1.000000    
    530 O2    c    0.565509 *  0.399214 *  0.219715 *  -1.21800    1.000000    
    531 O2    c    0.398782 *  0.399378 *  0.219724 *  -1.21800    1.000000    
    532 O2    c    0.232093 *  0.065947 *  0.219921 *  -1.21800    1.000000    
    533 O2    c    0.065524 *  0.065951 *  0.219924 *  -1.21800    1.000000    
    534 O2    c    0.898931 *  0.065856 *  0.219904 *  -1.21800    1.000000    
    535 O2    c    0.732221 *  0.065872 *  0.219877 *  -1.21800    1.000000    
    536 O2    c    0.565442 *  0.065847 *  0.219873 *  -1.21800    1.000000    
    537 O2    c    0.398710 *  0.065821 *  0.219896 *  -1.21800    1.000000    
    538 O2    c    0.232174 *  0.732695 *  0.219702 *  -1.21800    1.000000    
    539 O2    c    0.065337 *  0.732747 *  0.219728 *  -1.21800    1.000000    
    540 O2    c    0.898667 *  0.732903 *  0.219793 *  -1.21800    1.000000    
    541 O2    c    0.732143 *  0.732999 *  0.219830 *  -1.21800    1.000000    
    542 O2    c    0.565617 *  0.733084 *  0.219803 *  -1.21800    1.000000    
    543 O176  c    0.680216 *  0.459164 *  0.358889 *  -1.08000    1.000000    
    544 O177  c    0.145046 *  0.897784 *  0.422966 *  -1.08000    1.000000    
    545 O176  c    0.680216 *  0.336404 *  0.358889 *  -1.08000    1.000000    
    546 O177  c    0.267806 *  0.897784 *  0.422966 *  -1.08000    1.000000    
    547 O176  c    0.241596 *  0.897784 *  0.358889 *  -1.08000    1.000000    
    548 O177  c    0.706426 *  0.459164 *  0.422966 *  -1.08000    1.000000    
    549 O176  c    0.118836 *  0.897784 *  0.358889 *  -1.08000    1.000000    
    550 O177  c    0.706426 *  0.336404 *  0.422966 *  -1.08000    1.000000    
    551 O171  c    0.217822 *  0.897784 *  0.450826 *  -2.00000    1.000000    
    552 O171  c    0.717822 *  0.397784 *  0.450826 *  -2.00000    1.000000    
    553 O170  c    0.306419 *  0.750814 *  0.458179 *  -1.08000    1.000000    
    554 O170  c    0.067844 *  0.983374 *  0.443473 *  -1.08000    1.000000    
    555 O170  c    0.361784 *  0.812194 *  0.443473 *  -1.08000    1.000000    
    556 O170  c    0.135239 *  0.044754 *  0.458179 *  -1.08000    1.000000    
    557 O170  c    0.361784 *  0.983374 *  0.443473 *  -1.08000    1.000000    
    558 O170  c    0.067844 *  0.812194 *  0.443473 *  -1.08000    1.000000    
    559 O170  c    0.306419 *  0.044754 *  0.458179 *  -1.08000    1.000000    
    560 O170  c    0.135239 *  0.750814 *  0.458179 *  -1.08000    1.000000    
    561 O170  c    0.229217 *  0.959164 *  0.478686 *  -1.08000    1.000000    
    562 O170  c    0.694047 *  0.397784 *  0.542764 *  -1.08000    1.000000    
    563 O170  c    0.229217 *  0.836404 *  0.478686 *  -1.08000    1.000000    
    564 O170  c    0.816807 *  0.397784 *  0.542764 *  -1.08000    1.000000    
    565 O170  c    0.790597 *  0.397784 *  0.478686 *  -1.08000    1.000000    
    566 O170  c    0.255427 *  0.959164 *  0.542764 *  -1.08000    1.000000    
    567 O170  c    0.667837 *  0.397784 *  0.478686 *  -1.08000    1.000000    
    568 O170  c    0.255427 *  0.836404 *  0.542764 *  -1.08000    1.000000    
    569 O170  c    0.573859 *  0.312194 *  0.458179 *  -1.08000    1.000000    
    570 O170  c    0.800404 *  0.544754 *  0.443473 *  -1.08000    1.000000    
    571 O170  c    0.629224 *  0.250814 *  0.443473 *  -1.08000    1.000000    
    572 O170  c    0.867799 *  0.483374 *  0.458179 *  -1.08000    1.000000    
    573 O170  c    0.800404 *  0.250814 *  0.443473 *  -1.08000    1.000000    
    574 O170  c    0.629224 *  0.544754 *  0.443473 *  -1.08000    1.000000    
    575 O170  c    0.867799 *  0.312194 *  0.458179 *  -1.08000    1.000000    
    576 O170  c    0.573859 *  0.483374 *  0.458179 *  -1.08000    1.000000    
    577 O171  c    0.766823 *  0.397784 *  0.570624 *  -2.00000    1.000000    
    578 O171  c    0.266823 *  0.897784 *  0.570624 *  -2.00000    1.000000    
    579 O170  c    0.855421 *  0.250814 *  0.577977 *  -1.08000    1.000000    
    580 O170  c    0.616845 *  0.483374 *  0.563271 *  -1.08000    1.000000    
    581 O170  c    0.910785 *  0.312194 *  0.563271 *  -1.08000    1.000000    
    582 O170  c    0.684241 *  0.544754 *  0.577977 *  -1.08000    1.000000    
    583 O170  c    0.910785 *  0.483374 *  0.563271 *  -1.08000    1.000000    
    584 O170  c    0.616845 *  0.312194 *  0.563271 *  -1.08000    1.000000    
    585 O170  c    0.855421 *  0.544754 *  0.577977 *  -1.08000    1.000000    
    586 O170  c    0.684241 *  0.250814 *  0.577977 *  -1.08000    1.000000    
    587 O170  c    0.778219 *  0.459164 *  0.598484 *  -1.08000    1.000000    
    588 O170  c    0.243049 *  0.897784 *  0.662562 *  -1.08000    1.000000    
    589 O170  c    0.778219 *  0.336404 *  0.598484 *  -1.08000    1.000000    
    590 O170  c    0.365809 *  0.897784 *  0.662562 *  -1.08000    1.000000    
    591 O170  c    0.339599 *  0.897784 *  0.598484 *  -1.08000    1.000000    
    592 O170  c    0.804429 *  0.459164 *  0.662562 *  -1.08000    1.000000    
    593 O170  c    0.216839 *  0.897784 *  0.598484 *  -1.08000    1.000000    
    594 O170  c    0.804429 *  0.336404 *  0.662562 *  -1.08000    1.000000    
    595 O170  c    0.122861 *  0.812194 *  0.577977 *  -1.08000    1.000000    
    596 O170  c    0.349405 *  0.044754 *  0.563271 *  -1.08000    1.000000    
    597 O170  c    0.178225 *  0.750814 *  0.563271 *  -1.08000    1.000000    
    598 O170  c    0.416801 *  0.983374 *  0.577977 *  -1.08000    1.000000    
    599 O170  c    0.349405 *  0.750814 *  0.563271 *  -1.08000    1.000000    
    600 O170  c    0.178225 *  0.044754 *  0.563271 *  -1.08000    1.000000    
    601 O170  c    0.416801 *  0.812194 *  0.577977 *  -1.08000    1.000000    
    602 O170  c    0.122861 *  0.983374 *  0.577977 *  -1.08000    1.000000    
    603 O171  c    0.315824 *  0.897784 *  0.690422 *  -2.00000    1.000000    
    604 O171  c    0.815824 *  0.397784 *  0.690422 *  -2.00000    1.000000    
    605 O170  c    0.404422 *  0.750814 *  0.697775 *  -1.08000    1.000000    
    606 O170  c    0.165847 *  0.983374 *  0.683069 *  -1.08000    1.000000    
    607 O170  c    0.459787 *  0.812194 *  0.683069 *  -1.08000    1.000000    
    608 O170  c    0.233242 *  0.044754 *  0.697775 *  -1.08000    1.000000    
    609 O170  c    0.459787 *  0.983374 *  0.683069 *  -1.08000    1.000000    
    610 O170  c    0.165847 *  0.812194 *  0.683069 *  -1.08000    1.000000    
    611 O170  c    0.404422 *  0.044754 *  0.697775 *  -1.08000    1.000000    
    612 O170  c    0.233242 *  0.750814 *  0.697775 *  -1.08000    1.000000    
    613 O170  c    0.327220 *  0.959164 *  0.718282 *  -1.08000    1.000000    
    614 O173  c    0.792050 *  0.397784 *  0.782360 *  -0.69000    1.000000    
    615 O170  c    0.327220 *  0.836404 *  0.718282 *  -1.08000    1.000000    
    616 O172  c    0.914810 *  0.397784 *  0.782360 *  -0.69000    1.000000    
    617 H21   c    0.914810 *  0.397784 *  0.791065 *   0.22000    1.000000    
    618 O170  c    0.888600 *  0.397784 *  0.718282 *  -1.08000    1.000000    
    619 O173  c    0.353430 *  0.959164 *  0.782360 *  -0.69000    1.000000    
    620 O170  c    0.765840 *  0.397784 *  0.718282 *  -1.08000    1.000000    
    621 O172  c    0.353430 *  0.836404 *  0.782360 *  -0.69000    1.000000    
    622 H21   c    0.353430 *  0.836404 *  0.791065 *   0.22000    1.000000    
    623 O170  c    0.671862 *  0.312194 *  0.697775 *  -1.08000    1.000000    
    624 O170  c    0.898407 *  0.544754 *  0.683069 *  -1.08000    1.000000    
    625 O170  c    0.727227 *  0.250814 *  0.683069 *  -1.08000    1.000000    
    626 O170  c    0.965802 *  0.483374 *  0.697775 *  -1.08000    1.000000    
    627 O170  c    0.898407 *  0.250814 *  0.683069 *  -1.08000    1.000000    
    628 O170  c    0.727227 *  0.544754 *  0.683069 *  -1.08000    1.000000    
    629 O170  c    0.965802 *  0.312194 *  0.697775 *  -1.08000    1.000000    
    630 O170  c    0.671862 *  0.483374 *  0.697775 *  -1.08000    1.000000    
    631 C912  c    0.690697 *  0.463704 *  0.384513 *  -0.07025    1.000000    
    632 C912  c    0.130024 *  0.897784 *  0.397341 *  -0.07025    1.000000    
    633 C912  c    0.690697 *  0.331864 *  0.384513 *  -0.07025    1.000000    
    634 C912  c    0.261864 *  0.897784 *  0.397341 *  -0.07025    1.000000    
    635 C912  c    0.256617 *  0.897784 *  0.384513 *  -0.07025    1.000000    
    636 C912  c    0.695944 *  0.463704 *  0.397341 *  -0.07025    1.000000    
    637 C912  c    0.124777 *  0.897784 *  0.384513 *  -0.07025    1.000000    
    638 C912  c    0.695944 *  0.331864 *  0.397341 *  -0.07025    1.000000    
    639 C916  c    0.682390 *  0.397784 *  0.364203 *   1.07050    1.000000    
    640 C917  c    0.204252 *  0.897784 *  0.417652 *   1.07050    1.000000    
    641 C916  c    0.182390 *  0.897784 *  0.364203 *   1.07050    1.000000    
    642 C917  c    0.704252 *  0.397784 *  0.417652 *   1.07050    1.000000    
    643 C902  c    0.688055 *  0.397784 *  0.378054 *   0.00500    1.000000    
    644 C902  c    0.198587 *  0.897784 *  0.403801 *   0.00500    1.000000    
    645 C902  c    0.188055 *  0.897784 *  0.378054 *   0.00500    1.000000    
    646 C902  c    0.698587 *  0.397784 *  0.403801 *   0.00500    1.000000    
    647 C912  c    0.411322 *  0.641594 *  0.458723 *  -0.07025    1.000000    
    648 C912  c    0.958401 *  0.088054 *  0.442929 *  -0.07025    1.000000    
    649 C912  c    0.470781 *  0.707514 *  0.442929 *  -0.07025    1.000000    
    650 C912  c    0.030782 *  0.153974 *  0.458723 *  -0.07025    1.000000    
    651 C912  c    0.470781 *  0.088054 *  0.442929 *  -0.07025    1.000000    
    652 C912  c    0.958401 *  0.707514 *  0.442929 *  -0.07025    1.000000    
    653 C912  c    0.411322 *  0.153974 *  0.458723 *  -0.07025    1.000000    
    654 C912  c    0.030782 *  0.641594 *  0.458723 *  -0.07025    1.000000    
    655 C912  c    0.239699 *  0.963704 *  0.504311 *  -0.07025    1.000000    
    656 C912  c    0.679026 *  0.397784 *  0.517139 *  -0.07025    1.000000    
    657 C912  c    0.239699 *  0.831864 *  0.504311 *  -0.07025    1.000000    
    658 C912  c    0.810866 *  0.397784 *  0.517139 *  -0.07025    1.000000    
    659 C912  c    0.805619 *  0.397784 *  0.504311 *  -0.07025    1.000000    
    660 C912  c    0.244946 *  0.963704 *  0.517139 *  -0.07025    1.000000    
    661 C912  c    0.673779 *  0.397784 *  0.504311 *  -0.07025    1.000000    
    662 C912  c    0.244946 *  0.831864 *  0.517139 *  -0.07025    1.000000    
    663 C912  c    0.464862 *  0.207514 *  0.458723 *  -0.07025    1.000000    
    664 C912  c    0.904862 *  0.653974 *  0.442929 *  -0.07025    1.000000    
    665 C912  c    0.524321 *  0.141594 *  0.442929 *  -0.07025    1.000000    
    666 C912  c    0.977242 *  0.588054 *  0.458723 *  -0.07025    1.000000    
    667 C912  c    0.904862 *  0.141594 *  0.442929 *  -0.07025    1.000000    
    668 C912  c    0.524321 *  0.653974 *  0.442929 *  -0.07025    1.000000    
    669 C912  c    0.977242 *  0.207514 *  0.458723 *  -0.07025    1.000000    
    670 C912  c    0.464862 *  0.588054 *  0.458723 *  -0.07025    1.000000    
    671 C913  c    0.356282 *  0.759324 *  0.450826 *   1.07050    1.000000    
    672 C913  c    0.079362 *  0.036244 *  0.450826 *   1.07050    1.000000    
    673 C913  c    0.356282 *  0.036244 *  0.450826 *   1.07050    1.000000    
    674 C913  c    0.079362 *  0.759324 *  0.450826 *   1.07050    1.000000    
    675 C913  c    0.231391 *  0.897784 *  0.484001 *   1.07050    1.000000    
    676 C913  c    0.753253 *  0.397784 *  0.537450 *   1.07050    1.000000    
    677 C913  c    0.731391 *  0.397784 *  0.484001 *   1.07050    1.000000    
    678 C913  c    0.253253 *  0.897784 *  0.537450 *   1.07050    1.000000    
    679 C913  c    0.579362 *  0.259324 *  0.450826 *   1.07050    1.000000    
    680 C913  c    0.856282 *  0.536244 *  0.450826 *   1.07050    1.000000    
    681 C913  c    0.856282 *  0.259324 *  0.450826 *   1.07050    1.000000    
    682 C913  c    0.579362 *  0.536244 *  0.450826 *   1.07050    1.000000    
    683 C902  c    0.414092 *  0.701514 *  0.450826 *   0.00500    1.000000    
    684 C902  c    0.021552 *  0.094054 *  0.450826 *   0.00500    1.000000    
    685 C902  c    0.414092 *  0.094054 *  0.450826 *   0.00500    1.000000    
    686 C902  c    0.021552 *  0.701514 *  0.450826 *   0.00500    1.000000    
    687 C902  c    0.237057 *  0.897784 *  0.497852 *   0.00500    1.000000    
    688 C902  c    0.747588 *  0.397784 *  0.523599 *   0.00500    1.000000    
    689 C902  c    0.737057 *  0.397784 *  0.497852 *   0.00500    1.000000    
    690 C902  c    0.247588 *  0.897784 *  0.523599 *   0.00500    1.000000    
    691 C902  c    0.521552 *  0.201514 *  0.450826 *   0.00500    1.000000    
    692 C902  c    0.914092 *  0.594054 *  0.450826 *   0.00500    1.000000    
    693 C902  c    0.914092 *  0.201514 *  0.450826 *   0.00500    1.000000    
    694 C902  c    0.521552 *  0.594054 *  0.450826 *   0.00500    1.000000    
    695 C912  c    0.960323 *  0.141594 *  0.578521 *  -0.07025    1.000000    
    696 C912  c    0.507403 *  0.588054 *  0.562727 *  -0.07025    1.000000    
    697 C912  c    0.019783 *  0.207514 *  0.562727 *  -0.07025    1.000000    
    698 C912  c    0.579783 *  0.653974 *  0.578521 *  -0.07025    1.000000    
    699 C912  c    0.019783 *  0.588054 *  0.562727 *  -0.07025    1.000000    
    700 C912  c    0.507403 *  0.207514 *  0.562727 *  -0.07025    1.000000    
    701 C912  c    0.960323 *  0.653974 *  0.578521 *  -0.07025    1.000000    
    702 C912  c    0.579783 *  0.141594 *  0.578521 *  -0.07025    1.000000    
    703 C912  c    0.788700 *  0.463704 *  0.624109 *  -0.07025    1.000000    
    704 C912  c    0.228027 *  0.897784 *  0.636937 *  -0.07025    1.000000    
    705 C912  c    0.788700 *  0.331864 *  0.624109 *  -0.07025    1.000000    
    706 C912  c    0.359867 *  0.897784 *  0.636937 *  -0.07025    1.000000    
    707 C912  c    0.354620 *  0.897784 *  0.624109 *  -0.07025    1.000000    
    708 C912  c    0.793947 *  0.463704 *  0.636937 *  -0.07025    1.000000    
    709 C912  c    0.222780 *  0.897784 *  0.624109 *  -0.07025    1.000000    
    710 C912  c    0.793947 *  0.331864 *  0.636937 *  -0.07025    1.000000    
    711 C912  c    0.013863 *  0.707514 *  0.578521 *  -0.07025    1.000000    
    712 C912  c    0.453863 *  0.153974 *  0.562727 *  -0.07025    1.000000    
    713 C912  c    0.073323 *  0.641594 *  0.562727 *  -0.07025    1.000000    
    714 C912  c    0.526243 *  0.088054 *  0.578521 *  -0.07025    1.000000    
    715 C912  c    0.453863 *  0.641594 *  0.562727 *  -0.07025    1.000000    
    716 C912  c    0.073323 *  0.153974 *  0.562727 *  -0.07025    1.000000    
    717 C912  c    0.526243 *  0.707514 *  0.578521 *  -0.07025    1.000000    
    718 C912  c    0.013863 *  0.088054 *  0.578521 *  -0.07025    1.000000    
    719 C913  c    0.905283 *  0.259324 *  0.570624 *   1.07050    1.000000    
    720 C913  c    0.628363 *  0.536244 *  0.570624 *   1.07050    1.000000    
    721 C913  c    0.905283 *  0.536244 *  0.570624 *   1.07050    1.000000    
    722 C913  c    0.628363 *  0.259324 *  0.570624 *   1.07050    1.000000    
    723 C913  c    0.780392 *  0.397784 *  0.603799 *   1.07050    1.000000    
    724 C913  c    0.302255 *  0.897784 *  0.657248 *   1.07050    1.000000    
    725 C913  c    0.280392 *  0.897784 *  0.603799 *   1.07050    1.000000    
    726 C913  c    0.802255 *  0.397784 *  0.657248 *   1.07050    1.000000    
    727 C913  c    0.128363 *  0.759324 *  0.570624 *   1.07050    1.000000    
    728 C913  c    0.405283 *  0.036244 *  0.570624 *   1.07050    1.000000    
    729 C913  c    0.405283 *  0.759324 *  0.570624 *   1.07050    1.000000    
    730 C913  c    0.128363 *  0.036244 *  0.570624 *   1.07050    1.000000    
    731 C902  c    0.963093 *  0.201514 *  0.570624 *   0.00500    1.000000    
    732 C902  c    0.570553 *  0.594054 *  0.570624 *   0.00500    1.000000    
    733 C902  c    0.963093 *  0.594054 *  0.570624 *   0.00500    1.000000    
    734 C902  c    0.570553 *  0.201514 *  0.570624 *   0.00500    1.000000    
    735 C902  c    0.786058 *  0.397784 *  0.617650 *   0.00500    1.000000    
    736 C902  c    0.296589 *  0.897784 *  0.643397 *   0.00500    1.000000    
    737 C902  c    0.286058 *  0.897784 *  0.617650 *   0.00500    1.000000    
    738 C902  c    0.796589 *  0.397784 *  0.643397 *   0.00500    1.000000    
    739 C902  c    0.070553 *  0.701514 *  0.570624 *   0.00500    1.000000    
    740 C902  c    0.463093 *  0.094054 *  0.570624 *   0.00500    1.000000    
    741 C902  c    0.463093 *  0.701514 *  0.570624 *   0.00500    1.000000    
    742 C902  c    0.070553 *  0.094054 *  0.570624 *   0.00500    1.000000    
    743 C912  c    0.509324 *  0.641594 *  0.698319 *  -0.07025    1.000000    
    744 C912  c    0.056404 *  0.088054 *  0.682525 *  -0.07025    1.000000    
    745 C912  c    0.568784 *  0.707514 *  0.682525 *  -0.07025    1.000000    
    746 C912  c    0.128784 *  0.153974 *  0.698319 *  -0.07025    1.000000    
    747 C912  c    0.568784 *  0.088054 *  0.682525 *  -0.07025    1.000000    
    748 C912  c    0.056404 *  0.707514 *  0.682525 *  -0.07025    1.000000    
    749 C912  c    0.509324 *  0.153974 *  0.698319 *  -0.07025    1.000000    
    750 C912  c    0.128784 *  0.641594 *  0.698319 *  -0.07025    1.000000    
    751 C912  c    0.337701 *  0.963704 *  0.743907 *  -0.07025    1.000000    
    752 C912  c    0.777028 *  0.397784 *  0.756735 *  -0.07025    1.000000    
    753 C912  c    0.337701 *  0.831864 *  0.743907 *  -0.07025    1.000000    
    754 C912  c    0.908869 *  0.397784 *  0.756735 *  -0.07025    1.000000    
    755 C912  c    0.903621 *  0.397784 *  0.743907 *  -0.07025    1.000000    
    756 C912  c    0.342948 *  0.963704 *  0.756735 *  -0.07025    1.000000    
    757 C912  c    0.771781 *  0.397784 *  0.743907 *  -0.07025    1.000000    
    758 C912  c    0.342948 *  0.831864 *  0.756735 *  -0.07025    1.000000    
    759 C912  c    0.562864 *  0.207514 *  0.698319 *  -0.07025    1.000000    
    760 C912  c    0.002864 *  0.653974 *  0.682525 *  -0.07025    1.000000    
    761 C912  c    0.622324 *  0.141594 *  0.682525 *  -0.07025    1.000000    
    762 C912  c    0.075244 *  0.588054 *  0.698319 *  -0.07025    1.000000    
    763 C912  c    0.002864 *  0.141594 *  0.682525 *  -0.07025    1.000000    
    764 C912  c    0.622324 *  0.653974 *  0.682525 *  -0.07025    1.000000    
    765 C912  c    0.075244 *  0.207514 *  0.698319 *  -0.07025    1.000000    
    766 C912  c    0.562864 *  0.588054 *  0.698319 *  -0.07025    1.000000    
    767 C913  c    0.454284 *  0.759324 *  0.690422 *   1.07050    1.000000    
    768 C913  c    0.177364 *  0.036244 *  0.690422 *   1.07050    1.000000    
    769 C913  c    0.454284 *  0.036244 *  0.690422 *   1.07050    1.000000    
    770 C913  c    0.177364 *  0.759324 *  0.690422 *   1.07050    1.000000    
    771 C913  c    0.329394 *  0.897784 *  0.723596 *   1.07050    1.000000    
    772 C914  c    0.851256 *  0.397784 *  0.777046 *   1.07050    1.000000    
    773 C913  c    0.829394 *  0.397784 *  0.723596 *   1.07050    1.000000    
    774 C914  c    0.351256 *  0.897784 *  0.777046 *   1.07050    1.000000    
    775 C913  c    0.677364 *  0.259324 *  0.690422 *   1.07050    1.000000    
    776 C913  c    0.954284 *  0.536244 *  0.690422 *   1.07050    1.000000    
    777 C913  c    0.954284 *  0.259324 *  0.690422 *   1.07050    1.000000    
    778 C913  c    0.677364 *  0.536244 *  0.690422 *   1.07050    1.000000    
    779 C902  c    0.512094 *  0.701514 *  0.690422 *   0.00500    1.000000    
    780 C902  c    0.119554 *  0.094054 *  0.690422 *   0.00500    1.000000    
    781 C902  c    0.512094 *  0.094054 *  0.690422 *   0.00500    1.000000    
    782 C902  c    0.119554 *  0.701514 *  0.690422 *   0.00500    1.000000    
    783 C902  c    0.335059 *  0.897784 *  0.737448 *   0.00500    1.000000    
    784 C902  c    0.845591 *  0.397784 *  0.763195 *   0.00500    1.000000    
    785 C902  c    0.835059 *  0.397784 *  0.737448 *   0.00500    1.000000    
    786 C902  c    0.345591 *  0.897784 *  0.763195 *   0.00500    1.000000    
    787 C902  c    0.619554 *  0.201514 *  0.690422 *   0.00500    1.000000    
    788 C902  c    0.012094 *  0.594054 *  0.690422 *   0.00500    1.000000    
    789 C902  c    0.012094 *  0.201514 *  0.690422 *   0.00500    1.000000    
    790 C902  c    0.619554 *  0.594054 *  0.690422 *   0.00500    1.000000    
    791 H915  c    0.688901 *  0.508584 *  0.380121 *   0.11250    1.000000    
    792 H915  c    0.086941 *  0.897784 *  0.401733 *   0.11250    1.000000    
    793 H915  c    0.688901 *  0.286984 *  0.380121 *   0.11250    1.000000    
    794 H915  c    0.308541 *  0.897784 *  0.401733 *   0.11250    1.000000    
    795 H915  c    0.299701 *  0.897784 *  0.380121 *   0.11250    1.000000    
    796 H915  c    0.697741 *  0.508584 *  0.401733 *   0.11250    1.000000    
    797 H915  c    0.078101 *  0.897784 *  0.380121 *   0.11250    1.000000    
    798 H915  c    0.697741 *  0.286984 *  0.401733 *   0.11250    1.000000    
    799 H915  c    0.372751 *  0.637484 *  0.464100 *   0.11250    1.000000    
    800 H915  c    0.952092 *  0.047284 *  0.437553 *   0.11250    1.000000    
    801 H915  c    0.472692 *  0.748284 *  0.437553 *   0.11250    1.000000    
    802 H915  c    0.073751 *  0.158084 *  0.464100 *   0.11250    1.000000    
    803 H915  c    0.472692 *  0.047284 *  0.437553 *   0.11250    1.000000    
    804 H915  c    0.952092 *  0.748284 *  0.437553 *   0.11250    1.000000    
    805 H915  c    0.372751 *  0.158084 *  0.464100 *   0.11250    1.000000    
    806 H915  c    0.073751 *  0.637484 *  0.464100 *   0.11250    1.000000    
    807 H915  c    0.237902 *  0.008584 *  0.499919 *   0.11250    1.000000    
    808 H915  c    0.635942 *  0.397784 *  0.521531 *   0.11250    1.000000    
    809 H915  c    0.237902 *  0.786984 *  0.499919 *   0.11250    1.000000    
    810 H915  c    0.857542 *  0.397784 *  0.521531 *   0.11250    1.000000    
    811 H915  c    0.848702 *  0.397784 *  0.499919 *   0.11250    1.000000    
    812 H915  c    0.246742 *  0.008584 *  0.521531 *   0.11250    1.000000    
    813 H915  c    0.627102 *  0.397784 *  0.499919 *   0.11250    1.000000    
    814 H915  c    0.246742 *  0.786984 *  0.521531 *   0.11250    1.000000    
    815 H915  c    0.462951 *  0.248284 *  0.464100 *   0.11250    1.000000    
    816 H915  c    0.861892 *  0.658084 *  0.437553 *   0.11250    1.000000    
    817 H915  c    0.562892 *  0.137484 *  0.437553 *   0.11250    1.000000    
    818 H915  c    0.983551 *  0.547284 *  0.464100 *   0.11250    1.000000    
    819 H915  c    0.861892 *  0.137484 *  0.437553 *   0.11250    1.000000    
    820 H915  c    0.562892 *  0.658084 *  0.437553 *   0.11250    1.000000    
    821 H915  c    0.983551 *  0.248284 *  0.464100 *   0.11250    1.000000    
    822 H915  c    0.462951 *  0.547284 *  0.464100 *   0.11250    1.000000    
    823 H915  c    0.921752 *  0.137484 *  0.583898 *   0.11250    1.000000    
    824 H915  c    0.501094 *  0.547284 *  0.557351 *   0.11250    1.000000    
    825 H915  c    0.021694 *  0.248284 *  0.557351 *   0.11250    1.000000    
    826 H915  c    0.622752 *  0.658084 *  0.583898 *   0.11250    1.000000    
    827 H915  c    0.021694 *  0.547284 *  0.557351 *   0.11250    1.000000    
    828 H915  c    0.501094 *  0.248284 *  0.557351 *   0.11250    1.000000    
    829 H915  c    0.921752 *  0.658084 *  0.583898 *   0.11250    1.000000    
    830 H915  c    0.622752 *  0.137484 *  0.583898 *   0.11250    1.000000    
    831 H915  c    0.786904 *  0.508584 *  0.619717 *   0.11250    1.000000    
    832 H915  c    0.184944 *  0.897784 *  0.641329 *   0.11250    1.000000    
    833 H915  c    0.786904 *  0.286984 *  0.619717 *   0.11250    1.000000    
    834 H915  c    0.406544 *  0.897784 *  0.641329 *   0.11250    1.000000    
    835 H915  c    0.397704 *  0.897784 *  0.619717 *   0.11250    1.000000    
    836 H915  c    0.795744 *  0.508584 *  0.641329 *   0.11250    1.000000    
    837 H915  c    0.176104 *  0.897784 *  0.619717 *   0.11250    1.000000    
    838 H915  c    0.795744 *  0.286984 *  0.641329 *   0.11250    1.000000    
    839 H915  c    0.011952 *  0.748284 *  0.583898 *   0.11250    1.000000    
    840 H915  c    0.410894 *  0.158084 *  0.557351 *   0.11250    1.000000    
    841 H915  c    0.111894 *  0.637484 *  0.557351 *   0.11250    1.000000    
    842 H915  c    0.532552 *  0.047284 *  0.583898 *   0.11250    1.000000    
    843 H915  c    0.410894 *  0.637484 *  0.557351 *   0.11250    1.000000    
    844 H915  c    0.111894 *  0.158084 *  0.557351 *   0.11250    1.000000    
    845 H915  c    0.532552 *  0.748284 *  0.583898 *   0.11250    1.000000    
    846 H915  c    0.011952 *  0.047284 *  0.583898 *   0.11250    1.000000    
    847 H915  c    0.470754 *  0.637484 *  0.703696 *   0.11250    1.000000    
    848 H915  c    0.050095 *  0.047284 *  0.677148 *   0.11250    1.000000    
    849 H915  c    0.570695 *  0.748284 *  0.677148 *   0.11250    1.000000    
    850 H915  c    0.171754 *  0.158084 *  0.703696 *   0.11250    1.000000    
    851 H915  c    0.570695 *  0.047284 *  0.677148 *   0.11250    1.000000    
    852 H915  c    0.050095 *  0.748284 *  0.677148 *   0.11250    1.000000    
    853 H915  c    0.470754 *  0.158084 *  0.703696 *   0.11250    1.000000    
    854 H915  c    0.171754 *  0.637484 *  0.703696 *   0.11250    1.000000    
    855 H915  c    0.335905 *  0.008584 *  0.739515 *   0.11250    1.000000    
    856 H915  c    0.733945 *  0.397784 *  0.761127 *   0.11250    1.000000    
    857 H915  c    0.335905 *  0.786984 *  0.739515 *   0.11250    1.000000    
    858 H915  c    0.955545 *  0.397784 *  0.761127 *   0.11250    1.000000    
    859 H915  c    0.946705 *  0.397784 *  0.739515 *   0.11250    1.000000    
    860 H915  c    0.344745 *  0.008584 *  0.761127 *   0.11250    1.000000    
    861 H915  c    0.725105 *  0.397784 *  0.739515 *   0.11250    1.000000    
    862 H915  c    0.344745 *  0.786984 *  0.761127 *   0.11250    1.000000    
    863 H915  c    0.560954 *  0.248284 *  0.703696 *   0.11250    1.000000    
    864 H915  c    0.959895 *  0.658084 *  0.677148 *   0.11250    1.000000    
    865 H915  c    0.660895 *  0.137484 *  0.677148 *   0.11250    1.000000    
    866 H915  c    0.081554 *  0.547284 *  0.703696 *   0.11250    1.000000    
    867 H915  c    0.959895 *  0.137484 *  0.677148 *   0.11250    1.000000    
    868 H915  c    0.660895 *  0.658084 *  0.677148 *   0.11250    1.000000    
    869 H915  c    0.081554 *  0.248284 *  0.703696 *   0.11250    1.000000    
    870 H915  c    0.560954 *  0.547284 *  0.703696 *   0.11250    1.000000    
    871 Zn172 c    0.222082 *  0.810939 *  0.461231 *   2.00000    1.000000    
    872 Zn172 c    0.126721 *  0.897789 *  0.440422 *   2.00000    1.000000    
    873 Zn172 c    0.300411 *  0.897779 *  0.440422 *   2.00000    1.000000    
    874 Zn172 c    0.222072 *  0.984629 *  0.461231 *   2.00000    1.000000    
    875 Zn172 c    0.808922 *  0.397779 *  0.461231 *   2.00000    1.000000    
    876 Zn172 c    0.713561 *  0.484629 *  0.440422 *   2.00000    1.000000    
    877 Zn172 c    0.635232 *  0.397789 *  0.461231 *   2.00000    1.000000    
    878 Zn172 c    0.713571 *  0.310939 *  0.440422 *   2.00000    1.000000    
    879 Zn172 c    0.771084 *  0.310939 *  0.581029 *   2.00000    1.000000    
    880 Zn172 c    0.675722 *  0.397789 *  0.560220 *   2.00000    1.000000    
    881 Zn172 c    0.849412 *  0.397779 *  0.560220 *   2.00000    1.000000    
    882 Zn172 c    0.771074 *  0.484629 *  0.581029 *   2.00000    1.000000    
    883 Zn172 c    0.357924 *  0.897779 *  0.581029 *   2.00000    1.000000    
    884 Zn172 c    0.262562 *  0.984629 *  0.560220 *   2.00000    1.000000    
    885 Zn172 c    0.184234 *  0.897789 *  0.581029 *   2.00000    1.000000    
    886 Zn172 c    0.262572 *  0.810939 *  0.560220 *   2.00000    1.000000    
    887 Zn172 c    0.320085 *  0.810939 *  0.700826 *   2.00000    1.000000    
    888 Zn172 c    0.224723 *  0.897789 *  0.680018 *   2.00000    1.000000    
    889 Zn172 c    0.398414 *  0.897779 *  0.680018 *   2.00000    1.000000    
    890 Zn172 c    0.320075 *  0.984629 *  0.700826 *   2.00000    1.000000    
    891 Zn172 c    0.906925 *  0.397779 *  0.700826 *   2.00000    1.000000    
    892 Zn172 c    0.811564 *  0.484629 *  0.680018 *   2.00000    1.000000    
    893 Zn172 c    0.733235 *  0.397789 *  0.700826 *   2.00000    1.000000    
    894 Zn172 c    0.811574 *  0.310939 *  0.680018 *   2.00000    1.000000    
--------------------------------------------------------------------------------



  Molecule list generated from bond lengths :

  Total number of molecules =    22

--------------------------------------------------------------------------------
Molecule No./:  Atoms
Periodicity  :  
--------------------------------------------------------------------------------
     1  0    : O3   c   186 H22  c   187
     2  0    : O3   c   196 H22  c   197
     3  0    : O176 c   543 O176 c   545 O177 c   548 O177 c   550 C912 c   631
             : C912 c   633 C912 c   636 C912 c   638 C916 c   639 C917 c   642
             : C902 c   643 C902 c   646 H915 c   791 H915 c   793 H915 c   796
             : H915 c   798
     4  0    : O177 c   544 O177 c   546 O176 c   547 O176 c   549 C912 c   632
             : C912 c   634 C912 c   635 C912 c   637 C917 c   640 C916 c   641
             : C902 c   644 C902 c   645 H915 c   792 H915 c   794 H915 c   795
             : H915 c   797
     5  0    : O170 c   553 O170 c   555 O170 c   574 O170 c   576 C912 c   647
             : C912 c   649 C912 c   668 C912 c   670 C913 c   671 C913 c   682
             : C902 c   683 C902 c   694 H915 c   799 H915 c   801 H915 c   820
             : H915 c   822
     6  0    : O170 c   554 O170 c   556 O170 c   573 O170 c   575 C912 c   648
             : C912 c   650 C912 c   667 C912 c   669 C913 c   672 C913 c   681
             : C902 c   684 C902 c   693 H915 c   800 H915 c   802 H915 c   819
             : H915 c   821
     7  0    : O170 c   557 O170 c   559 O170 c   569 O170 c   571 C912 c   651
             : C912 c   653 C912 c   663 C912 c   665 C913 c   673 C913 c   679
             : C902 c   685 C902 c   691 H915 c   803 H915 c   805 H915 c   815
             : H915 c   817
     8  0    : O170 c   558 O170 c   560 O170 c   570 O170 c   572 C912 c   652
             : C912 c   654 C912 c   664 C912 c   666 C913 c   674 C913 c   680
             : C902 c   686 C902 c   692 H915 c   804 H915 c   806 H915 c   816
             : H915 c   818
     9  0    : O170 c   561 O170 c   563 O170 c   566 O170 c   568 C912 c   655
             : C912 c   657 C912 c   660 C912 c   662 C913 c   675 C913 c   678
             : C902 c   687 C902 c   690 H915 c   807 H915 c   809 H915 c   812
             : H915 c   814
    10  0    : O170 c   562 O170 c   564 O170 c   565 O170 c   567 C912 c   656
             : C912 c   658 C912 c   659 C912 c   661 C913 c   676 C913 c   677
             : C902 c   688 C902 c   689 H915 c   808 H915 c   810 H915 c   811
             : H915 c   813
    11  0    : O170 c   579 O170 c   581 O170 c   600 O170 c   602 C912 c   695
             : C912 c   697 C912 c   716 C912 c   718 C913 c   719 C913 c   730
             : C902 c   731 C902 c   742 H915 c   823 H915 c   825 H915 c   844
             : H915 c   846
    12  0    : O170 c   580 O170 c   582 O170 c   599 O170 c   601 C912 c   696
             : C912 c   698 C912 c   715 C912 c   717 C913 c   720 C913 c   729
             : C902 c   732 C902 c   741 H915 c   824 H915 c   826 H915 c   843
             : H915 c   845
    13  0    : O170 c   583 O170 c   585 O170 c   595 O170 c   597 C912 c   699
             : C912 c   701 C912 c   711 C912 c   713 C913 c   721 C913 c   727
             : C902 c   733 C902 c   739 H915 c   827 H915 c   829 H915 c   839
             : H915 c   841
    14  0    : O170 c   584 O170 c   586 O170 c   596 O170 c   598 C912 c   700
             : C912 c   702 C912 c   712 C912 c   714 C913 c   722 C913 c   728
             : C902 c   734 C902 c   740 H915 c   828 H915 c   830 H915 c   840
             : H915 c   842
    15  0    : O170 c   587 O170 c   589 O170 c   592 O170 c   594 C912 c   703
             : C912 c   705 C912 c   708 C912 c   710 C913 c   723 C913 c   726
             : C902 c   735 C902 c   738 H915 c   831 H915 c   833 H915 c   836
             : H915 c   838
    16  0    : O170 c   588 O170 c   590 O170 c   591 O170 c   593 C912 c   704
             : C912 c   706 C912 c   707 C912 c   709 C913 c   724 C913 c   725
             : C902 c   736 C902 c   737 H915 c   832 H915 c   834 H915 c   835
             : H915 c   837
    17  0    : O170 c   605 O170 c   607 O170 c   628 O170 c   630 C912 c   743
             : C912 c   745 C912 c   764 C912 c   766 C913 c   767 C913 c   778
             : C902 c   779 C902 c   790 H915 c   847 H915 c   849 H915 c   868
             : H915 c   870
    18  0    : O170 c   606 O170 c   608 O170 c   627 O170 c   629 C912 c   744
             : C912 c   746 C912 c   763 C912 c   765 C913 c   768 C913 c   777
             : C902 c   780 C902 c   789 H915 c   848 H915 c   850 H915 c   867
             : H915 c   869
    19  0    : O170 c   609 O170 c   611 O170 c   623 O170 c   625 C912 c   747
             : C912 c   749 C912 c   759 C912 c   761 C913 c   769 C913 c   775
             : C902 c   781 C902 c   787 H915 c   851 H915 c   853 H915 c   863
             : H915 c   865
    20  0    : O170 c   610 O170 c   612 O170 c   624 O170 c   626 C912 c   748
             : C912 c   750 C912 c   760 C912 c   762 C913 c   770 C913 c   776
             : C902 c   782 C902 c   788 H915 c   852 H915 c   854 H915 c   864
             : H915 c   866
    21  0    : O170 c   613 O170 c   615 O173 c   619 O172 c   621 H21  c   622
             : C912 c   751 C912 c   753 C912 c   756 C912 c   758 C913 c   771
             : C914 c   774 C902 c   783 C902 c   786 H915 c   855 H915 c   857
             : H915 c   860 H915 c   862
[...]
   640 C917  c    -17.526065          -0.068796   -0.393392   -6.901892
   641 C916  c    -16.545280          -0.130467    0.518191    6.174322
   642 C917  c    -17.408340          -1.412933    0.436406   -6.927042
   643 C902  c      2.096854          -0.776927    0.420367   -4.064294
   644 C902  c      1.207258           0.106988    0.154215    3.694952
   645 C902  c      1.433193          -0.216874   -0.516308   -3.914396
   646 C902  c      1.396346           0.666199   -0.405209    3.411049
   647 C912  c      1.039457          -1.074037    0.408933    0.510737
   648 C912  c      1.042648           0.286529   -1.175866   -0.478549
   649 C912  c      1.062135          -0.270748    1.185874   -0.498907
   650 C912  c      1.030693           1.056794   -0.428190    0.579332
   651 C912  c      1.039341          -0.281307   -1.175408   -0.496084
   652 C912  c      1.077822           0.275200    1.179604   -0.480712
   653 C912  c      1.027321          -1.066503   -0.417400    0.545600
   654 C912  c      1.053514           1.061991    0.419518    0.550592
   655 C912  c      1.044704          -0.061961    0.703421   -1.049241
   656 C912  c      1.047780          -0.676237    0.003857    1.068265
   657 C912  c      1.041387          -0.054375   -0.695844   -1.048602
   658 C912  c      1.072325           0.801138    0.003375    1.025530
   659 C912  c      1.054293           0.682045   -0.002756   -1.071497
   660 C912  c      1.044760           0.055095    0.696829    1.052682
   661 C912  c      1.068221          -0.796346   -0.002426   -1.026233
   662 C912  c      1.045589           0.062004   -0.702375    1.051236
   663 C912  c      1.061132           0.284418    1.186689    0.508168
   664 C912  c      1.064572          -1.061983   -0.431904   -0.563066
   665 C912  c      1.021686           1.068195    0.431796   -0.538547
   666 C912  c      1.079971          -0.275754   -1.190546    0.470571
   667 C912  c      1.039696          -1.073478    0.435305   -0.576769
   668 C912  c      1.026706           1.061317   -0.423759   -0.508901
   669 C912  c      1.044087          -0.294025    1.168213    0.486834
   670 C912  c      1.086078           0.264200   -1.207323    0.502132
   671 C913  c    -17.536696           4.754490   -5.305229   -0.258754
   672 C913  c    -17.530357          -4.653054    5.367717   -0.471325
   673 C913  c    -17.543810           4.741057    5.311212   -0.313980
   674 C913  c    -17.527661          -4.632307   -5.397671   -0.437497
   675 C913  c    -17.487000           0.395640    0.008193    6.894244
   676 C913  c    -17.490181          -0.185728   -0.027445   -7.021087
   677 C913  c    -17.496436           0.240349    0.015321    7.041422
   678 C913  c    -17.488051          -0.392354    0.010243   -6.911265
   679 C913  c    -17.515725          -4.707685   -5.321439    0.344309
   680 C913  c    -17.489096           4.629656    5.374032    0.418177
   681 C913  c    -17.506518           4.582913   -5.424093    0.323709
   682 C913  c    -17.512750          -4.783325    5.252491    0.377122
   683 C902  c      1.170983          -2.294017    2.704342    0.025169
   684 C902  c      1.159838           2.291572   -2.708492    0.176870
   685 C902  c      1.152465          -2.303329   -2.692815    0.079148
   686 C902  c      1.187137           2.278987    2.720480    0.141284
   687 C902  c      1.241888          -0.202647    0.008800   -3.712344
   688 C902  c      1.203859           0.183921    0.013381    3.593550
   689 C902  c      1.205048          -0.190241   -0.006485   -3.592619
   690 C902  c      1.246195           0.203005   -0.009805    3.716075
   691 C902  c      1.167394           2.293029    2.713634   -0.080118
   692 C902  c      1.200962          -2.289765   -2.724791   -0.148571
   693 C902  c      1.168996          -2.305912    2.703827   -0.145590
   694 C902  c      1.182341           2.279649   -2.728522   -0.050931
   695 C912  c      1.017465          -1.053947    0.445179    0.466361
   696 C912  c      1.078498           0.251807   -1.185549   -0.551199
   697 C912  c      1.082870          -0.250471    1.186829   -0.583877
   698 C912  c      1.029284           1.064791   -0.443989    0.477006
   699 C912  c      1.083724          -0.251763   -1.185707   -0.585406
   700 C912  c      1.078080           0.251274    1.185814   -0.550534
   701 C912  c      1.017783          -1.052773   -0.446022    0.468741
   702 C912  c      1.028904           1.064507    0.444002    0.476760
   703 C912  c      1.055227          -0.041987    0.707494   -1.050067
   704 C912  c      1.045125          -0.674740   -0.000388    1.066007
   705 C912  c      1.054935          -0.042221   -0.706984   -1.050019
   706 C912  c      1.061731           0.775301    0.000479    1.032970
   707 C912  c      1.042935           0.674110    0.000251   -1.064335
   708 C912  c      1.057031           0.041994    0.706467    1.052896
   709 C912  c      1.062490          -0.776819   -0.000652   -1.032568
   710 C912  c      1.056974           0.041711   -0.706635    1.052911
   711 C912  c      1.081775           0.251506    1.184887    0.583839
   712 C912  c      1.029507          -1.064855   -0.444451   -0.476640
   713 C912  c      1.019952           1.054270    0.446452   -0.469651
   714 C912  c      1.077550          -0.250846   -1.185697    0.550023
   715 C912  c      1.029958          -1.065223    0.444118   -0.477015
   716 C912  c      1.018153           1.054365   -0.445471   -0.466450
   717 C912  c      1.077465          -0.251294    1.184970    0.550576
   718 C912  c      1.082019           0.249653   -1.186671    0.582885
   719 C913  c    -17.523802           4.801686   -5.258082   -0.047658
   720 C913  c    -17.516925          -4.732528    5.304206   -0.083785
   721 C913  c    -17.523353           4.802259    5.258577   -0.054276
   722 C913  c    -17.517841          -4.730473   -5.305943   -0.084730
   723 C913  c    -17.488657           0.289863    0.000793    6.948291
   724 C913  c    -17.493345          -0.167205   -0.000929   -6.986450
   725 C913  c    -17.489791           0.155874    0.000674    6.979151
   726 C913  c    -17.471009          -0.277266    0.000514   -6.925039
   727 C913  c    -17.524512          -4.787763   -5.275532    0.060601
   728 C913  c    -17.517551           4.722555    5.315084    0.099994
   729 C913  c    -17.517804           4.723608   -5.315087    0.096203
   730 C913  c    -17.525554          -4.792604    5.270790    0.062815
   731 C902  c      1.170241          -2.248041    2.739313   -0.162062
   732 C902  c      1.180744           2.265923   -2.746667   -0.099561
   733 C902  c      1.170416          -2.248124   -2.738240   -0.159342
   734 C902  c      1.180475           2.265166    2.747824   -0.099270
   735 C902  c      1.243377          -0.148037    0.000373   -3.692065
   736 C902  c      1.216750           0.156862    0.000449    3.636662
   737 C902  c      1.214624          -0.157333   -0.000373   -3.633513
   738 C902  c      1.248858           0.141991   -0.000495    3.698789
   739 C902  c      1.170583           2.245678    2.740705    0.152028
   740 C902  c      1.180776          -2.263293   -2.750063    0.091862
   741 C902  c      1.180556          -2.263949    2.748487    0.092626
   742 C902  c      1.170125           2.244911   -2.742229    0.153769
   743 C912  c      1.029636          -1.059547    0.433507    0.516157
   744 C912  c      1.068354           0.270498   -1.185399   -0.502434
   745 C912  c      1.074809          -0.270725    1.187157   -0.525066
   746 C912  c      1.034946           1.067700   -0.430604    0.522080
   747 C912  c      1.071470          -0.271009   -1.187282   -0.527117
   748 C912  c      1.071374           0.270868    1.184534   -0.501225
   749 C912  c      1.022660          -1.059256   -0.434094    0.513562
   750 C912  c      1.042041           1.067635    0.430450    0.525632
   751 C912  c      1.200822          -0.037894    0.643502   -0.960970
   752 C912  c      1.409882          -0.503756    0.011611    1.290978
   753 C912  c      1.253813          -0.034456   -0.686136   -0.922652
   754 C912  c      1.541894           0.638187    0.009541    1.370409
   755 C912  c      1.244798           0.663804   -0.002322   -0.926276
   756 C912  c      1.406995           0.049256    0.526710    1.280083
   757 C912  c      1.204258          -0.667089    0.000372   -0.950426
   758 C912  c      1.542248           0.054832   -0.612974    1.377741
   759 C912  c      1.062678           0.272798    1.186093    0.517764
   760 C912  c      1.043164          -1.067608   -0.431395   -0.526136
   761 C912  c      1.032531           1.062509    0.433141   -0.521414
   762 C912  c      1.071388          -0.271120   -1.185445    0.500921
   763 C912  c      1.039911          -1.068199    0.431325   -0.526718
   764 C912  c      1.036055           1.062742   -0.432570   -0.520013
   765 C912  c      1.065143          -0.271355    1.186468    0.498401
   766 C912  c      1.068749           0.271988   -1.185257    0.519310
   767 C913  c    -17.518259           4.743065   -5.297488   -0.263427
   768 C913  c    -17.515520          -4.684710    5.337947   -0.277299
   769 C913  c    -17.520851           4.743473    5.296510   -0.261189
   770 C913  c    -17.512976          -4.682845   -5.340566   -0.277489
   771 C913  c    -17.438735           0.271251    0.016119    6.975943
   772 C914  c    -14.314993           0.508491   -0.029752   -4.525709
   773 C913  c    -17.452014           0.048011    0.025051    6.973958
   774 C914  c    -14.318267          -0.179241   -0.598274   -4.511418
   775 C913  c    -17.519372          -4.714867   -5.323304    0.275565
   776 C913  c    -17.511340           4.679656    5.344698    0.314480
   777 C913  c    -17.513239           4.678959   -5.343909    0.313276
   778 C913  c    -17.517769          -4.714844    5.324811    0.273812
   779 C902  c      1.176482          -2.283065    2.724906    0.008912
   780 C902  c      1.180378           2.292140   -2.729614    0.047508
   781 C902  c      1.171975          -2.283345   -2.725565    0.005614
   782 C902  c      1.184699           2.291785    2.728697    0.050355
   783 C902  c      1.366335          -0.135899   -0.025165   -3.594594
   784 C902  c      2.105232           0.165043    0.031699    4.374183
   785 C902  c      1.359466          -0.044356   -0.010305   -3.589768
   786 C902  c      2.103206           0.173399   -0.079593    4.372499
   787 C902  c      1.173356           2.279261    2.730698   -0.022499
   788 C902  c      1.185781          -2.289168   -2.731001   -0.064283
   789 C902  c      1.181806          -2.289532    2.732050   -0.065056
   790 C902  c      1.177369           2.279180   -2.729540   -0.021282
   791 H915  c     -1.500029           0.076963    0.283390    0.132334
   792 H915  c     -1.938075          -0.572502   -0.093926   -0.326176
   793 H915  c     -0.908457          -0.124479   -0.370454   -0.477770
   794 H915  c     -1.958312           0.508128   -0.038764   -0.229723
   795 H915  c     -1.877628           0.565221   -0.080739    0.087269
   796 H915  c     -1.815591          -0.074047    0.533599   -0.314725
   797 H915  c     -1.577938          -0.567647   -0.210908   -0.007040
   798 H915  c     -1.576846          -0.064944   -0.472158   -0.319708
   799 H915  c     -1.905499          -0.123230   -0.482349    0.365605
   800 H915  c     -1.862106          -0.385078   -0.114579   -0.370320
   801 H915  c     -1.834105           0.387175    0.123574   -0.345924
   802 H915  c     -1.897005           0.121909    0.449505    0.368330
   803 H915  c     -1.862631           0.385892   -0.120087   -0.351657
   804 H915  c     -1.826467          -0.395061    0.102966   -0.379714
   805 H915  c     -1.907387          -0.119342    0.463054    0.374728
   806 H915  c     -1.883903           0.126917   -0.463798    0.355141
   807 H915  c     -1.912835           0.013308    0.541646    0.266474
   808 H915  c     -1.898986          -0.555319   -0.000954   -0.238789
   809 H915  c     -1.921390           0.020001   -0.546659    0.275443
   810 H915  c     -1.835596           0.516533   -0.001026   -0.216506
   811 H915  c     -1.883991           0.554810   -0.000091    0.227128
   812 H915  c     -1.914707          -0.019159    0.545786   -0.269561
   813 H915  c     -1.845345          -0.516408   -0.000301    0.225433
   814 H915  c     -1.912172          -0.013892   -0.543757   -0.269253
   815 H915  c     -1.824797          -0.384489    0.124961    0.371199
   816 H915  c     -1.866731          -0.125346    0.449475   -0.365763
   817 H915  c     -1.915105           0.127589   -0.444602   -0.362050
   818 H915  c     -1.818722           0.396045   -0.120682    0.366135
   819 H915  c     -1.873236          -0.146669   -0.405502   -0.354591
   820 H915  c     -1.931263           0.112415    0.490886   -0.368945
   821 H915  c     -1.865706           0.409643    0.097236    0.387744
   822 H915  c     -1.785987          -0.374078   -0.148775    0.350949
   823 H915  c     -1.950694          -0.111314   -0.500736    0.402344
   824 H915  c     -1.797832          -0.382062   -0.127204   -0.352618
   825 H915  c     -1.777544           0.362209    0.139745   -0.351487
   826 H915  c     -1.928003           0.124147    0.485729    0.384621
   827 H915  c     -1.776489           0.361091   -0.139177   -0.352973
   828 H915  c     -1.798448          -0.382431    0.127061   -0.352400
   829 H915  c     -1.950250          -0.110360    0.499730    0.403050
   830 H915  c     -1.928668           0.124134   -0.486322    0.384546
   831 H915  c     -1.898211           0.012464    0.542036    0.262984
   832 H915  c     -1.907708          -0.555915   -0.000523   -0.249417
   833 H915  c     -1.898898           0.012343   -0.542194    0.263512
   834 H915  c     -1.862075           0.520668    0.000131   -0.234115
   835 H915  c     -1.911309           0.555577    0.000267    0.250754
   836 H915  c     -1.895639          -0.010457    0.541825   -0.260237
   837 H915  c     -1.859968          -0.519880   -0.000449    0.231160
   838 H915  c     -1.895691          -0.010672   -0.541568   -0.260107
   839 H915  c     -1.779913          -0.361902    0.136795    0.354097
   840 H915  c     -1.928436          -0.124611    0.487353   -0.382708
   841 H915  c     -1.946555           0.112379   -0.498122   -0.401238
   842 H915  c     -1.799064           0.381373   -0.126364    0.353377
   843 H915  c     -1.927480          -0.124721   -0.486440   -0.382839
   844 H915  c     -1.950069           0.112101    0.501547   -0.400500
   845 H915  c     -1.799433           0.381610    0.125877    0.353639
   846 H915  c     -1.778741          -0.361874   -0.138517    0.352785
   847 H915  c     -1.920845          -0.116781   -0.473621    0.376917
   848 H915  c     -1.824316          -0.395292   -0.118812   -0.363783
   849 H915  c     -1.806054           0.378695    0.128630   -0.361422
   850 H915  c     -1.908165           0.127472    0.461706    0.362858
   851 H915  c     -1.808293           0.378439   -0.128981   -0.362348
   852 H915  c     -1.822645          -0.395458    0.117775   -0.363482
   853 H915  c     -1.929760          -0.117060    0.472175    0.373347
   854 H915  c     -1.898733           0.127280   -0.462116    0.366857
   855 H915  c     -1.837217           0.010915    0.489239    0.291168
   856 H915  c     -1.670671          -0.250179    0.003502   -0.160403
   857 H915  c     -1.781621           0.013865   -0.502713    0.332051
   858 H915  c     -1.395066           0.269730    0.003461    0.037356
   859 H915  c     -1.800998           0.513632    0.002693    0.342815
   860 H915  c     -1.675286          -0.008732    0.246426   -0.166708
   861 H915  c     -1.827553          -0.480637    0.004689    0.288847
   862 H915  c     -1.395379           0.000188   -0.269084    0.040759
   863 H915  c     -1.824123          -0.375402    0.126369    0.356535
   864 H915  c     -1.898507          -0.126870    0.467870   -0.366091
   865 H915  c     -1.912524           0.120921   -0.474057   -0.377862
   866 H915  c     -1.821362           0.388280   -0.119152    0.364335
   867 H915  c     -1.900918          -0.127374   -0.467928   -0.366693
   868 H915  c     -1.909591           0.121093    0.474000   -0.376641
   869 H915  c     -1.828123           0.387498    0.121199    0.361306
   870 H915  c     -1.817885          -0.377231   -0.124102    0.359126
   871 Zn172 c    -20.908853          -0.056247   -0.340067    0.021186
   872 Zn172 c    -20.779470          -0.558446    0.041648    0.245109
   873 Zn172 c    -20.681489           0.491033   -0.004681    0.167423
   874 Zn172 c    -20.877763          -0.049603    0.388940    0.027450
   875 Zn172 c    -20.688418           0.408298    0.018222   -0.011427
   876 Zn172 c    -20.862919           0.178253    0.339591   -0.200299
   877 Zn172 c    -20.540352          -0.392821    0.026386    0.031696
   878 Zn172 c    -20.667276           0.142930   -0.130565   -0.360824
   879 Zn172 c    -20.958606          -0.039573   -0.213926    0.105454
   880 Zn172 c    -20.607565          -0.514444    0.003514    0.074428
   881 Zn172 c    -20.479416           0.506100    0.002966   -0.031455
   882 Zn172 c    -20.957028          -0.039130    0.216544    0.106350
   883 Zn172 c    -20.629804           0.533333   -0.000022   -0.144335
   884 Zn172 c    -20.980383           0.047915    0.257282   -0.066309
   885 Zn172 c    -20.512777          -0.538017    0.001439   -0.057054
   886 Zn172 c    -20.973654           0.042279   -0.257565   -0.071883
   887 Zn172 c    -20.880379          -0.035318   -0.262996    0.124532
   888 Zn172 c    -20.688083          -0.488427    0.001342    0.113327
   889 Zn172 c    -20.587944           0.460684    0.000914    0.028896
   890 Zn172 c    -20.888200          -0.034182    0.271771    0.113364
   891 Zn172 c    -20.688385           0.489545   -0.000185   -0.150899
   892 Zn172 c    -20.895408           0.031800    0.305128   -0.085536
   893 Zn172 c    -20.635239          -0.505531   -0.002444   -0.132763
   894 Zn172 c    -20.895718           0.031883   -0.303903   -0.086249
-------------------------------------------------------------------------------

  Total time to end of lattice properties =    6142.7359 s


  Peak dynamic memory used =     148.21 MB 


  Timing analysis for GULP :

--------------------------------------------------------------------------------
  Task / Subroutine                                          Time (Seconds)
--------------------------------------------------------------------------------
  Calculation of reciprocal space energy and derivatives       1439.4233
  Calculation of real space energy and derivatives             3953.1093
  Calculation of three-body energy and derivatives               12.6836
  Calculation of four-body energy and derivatives                13.6960
  Calculation of molecules and connectivity                       0.5326
  Calculation of phonons                                         51.9081
  Calculation of scattering                                       0.0000
  Calculation of matrix inversion                               656.3582
  Symmetry generation of equivalent positions                     0.0092
  Global summation overhead                                       0.0131
--------------------------------------------------------------------------------
  Total CPU time                                               6142.7360
--------------------------------------------------------------------------------


  Dump file written as fit1.res                                                


  Job Finished at 11:53.31 18th May        2016                               

