********************************************************************************
*                       GENERAL UTILITY LATTICE PROGRAM                        *
*                                 Julian Gale                                  *
*                      Nanochemistry Research Institute                        *
*                           Department of Chemistry                            *
*                    Curtin University, Western Australia                      *
********************************************************************************
* Version = 4.4.0 * Last modified = 31st March 2015                            *
********************************************************************************
*  optimise     - perform optimisation run                                     *
*  conv         - constant volume calculation                                  *
*  qok          - running with non charge neutral cell is OK                   *
*  property     - calculate properties for final geometry                      *
*  phonon       - calculate phonons for final geometry                         *
*  potential    - calculate electrostatic site potentials                      *
*  molmec       - molecule option activated, Coulomb subtract 1-2/1-3 terms    *
*  fix_molecule - fix atoms of molecule as at the start of the run             *
*  compare      - compare initial and final structures                         *
********************************************************************************

  Job Started  at 19:51.23 24th May        2016                               

  Number of CPUs =     1


  Total number of configurations input =   1

********************************************************************************
*  Input for Configuration =   1                                               *
********************************************************************************

  Formula = Ti180O360H                                                  

  Number of irreducible atoms/shells =     541


  Total number atoms/shells =     541

  Dimensionality = 3               :  Bulk   


  Charge on solid   =   1.000000 =>neutralising background added


  Cartesian lattice vectors (Angstroms) :

       17.724000    0.000000    0.000000
        0.000000   19.461000    0.000000
        0.000000    0.000000   48.346000

  Cell parameters (Angstroms/Degrees):

  a =      17.7240    alpha =  90.0000
  b =      19.4610    beta  =  90.0000
  c =      48.3460    gamma =  90.0000

  Initial cell volume =       16675.829332 Angs**3

  Temperature of configuration =  0.000     K 

  Pressure of configuration =         0.000 GPa 

  Fractional coordinates of asymmetric unit :

--------------------------------------------------------------------------------
   No.  Atomic       x           y          z         Charge      Occupancy
        Label      (Frac)      (Frac)     (Frac)        (e)         (Frac)  
--------------------------------------------------------------------------------
      1 Ti    c    0.000000    0.333333    0.000000     2.43600    1.000000    
      2 Ti    c    0.833333 *  0.000000 *  0.000000 *   2.43600    1.000000    
      3 Ti    c    0.666667 *  0.000000 *  0.000000 *   2.43600    1.000000    
      4 Ti    c    0.500000 *  0.000000 *  0.000000 *   2.43600    1.000000    
      5 Ti    c    0.333333 *  0.000000 *  0.000000 *   2.43600    1.000000    
      6 Ti    c    0.166667 *  0.000000 *  0.000000 *   2.43600    1.000000    
      7 Ti    c    0.000000 *  0.000000 *  0.000000 *   2.43600    1.000000    
      8 Ti    c    0.833333 *  0.666667 *  0.000000 *   2.43600    1.000000    
      9 Ti    c    0.666667 *  0.666667 *  0.000000 *   2.43600    1.000000    
     10 Ti    c    0.500000 *  0.666667 *  0.000000 *   2.43600    1.000000    
     11 Ti    c    0.333333 *  0.666667 *  0.000000 *   2.43600    1.000000    
     12 Ti    c    0.166667 *  0.666667 *  0.000000 *   2.43600    1.000000    
     13 Ti    c    0.000000 *  0.666667 *  0.000000 *   2.43600    1.000000    
     14 Ti    c    0.833333 *  0.333333 *  0.000000 *   2.43600    1.000000    
     15 Ti    c    0.666667 *  0.333333 *  0.000000 *   2.43600    1.000000    
     16 Ti    c    0.500000 *  0.333333 *  0.000000 *   2.43600    1.000000    
     17 Ti    c    0.333333 *  0.333333 *  0.000000 *   2.43600    1.000000    
     18 Ti    c    0.166667 *  0.333333 *  0.000000 *   2.43600    1.000000    
     19 Ti    c    0.750000 *  0.833333 *  0.994911 *   2.43600    1.000000    
     20 Ti    c    0.583333 *  0.833333 *  0.994911 *   2.43600    1.000000    
     21 Ti    c    0.416667 *  0.833333 *  0.994911 *   2.43600    1.000000    
     22 Ti    c    0.583333 *  0.500000 *  0.994911 *   2.43600    1.000000    
     23 Ti    c    0.250000 *  0.500000 *  0.994911 *   2.43600    1.000000    
     24 Ti    c    0.083333 *  0.500000 *  0.994911 *   2.43600    1.000000    
     25 Ti    c    0.583333 *  0.166667 *  0.994911 *   2.43600    1.000000    
     26 Ti    c    0.250000 *  0.166667 *  0.994911 *   2.43600    1.000000    
     27 Ti    c    0.083333 *  0.166667 *  0.994911 *   2.43600    1.000000    
     28 Ti    c    0.916667 *  0.833333 *  0.994911 *   2.43600    1.000000    
     29 Ti    c    0.250000 *  0.833333 *  0.994911 *   2.43600    1.000000    
     30 Ti    c    0.083333 *  0.833333 *  0.994911 *   2.43600    1.000000    
     31 Ti    c    0.916667 *  0.500000 *  0.994911 *   2.43600    1.000000    
     32 Ti    c    0.750000 *  0.500000 *  0.994911 *   2.43600    1.000000    
     33 Ti    c    0.416667 *  0.500000 *  0.994911 *   2.43600    1.000000    
     34 Ti    c    0.916667 *  0.166667 *  0.994911 *   2.43600    1.000000    
     35 Ti    c    0.750000 *  0.166667 *  0.994911 *   2.43600    1.000000    
     36 Ti    c    0.416667 *  0.166667 *  0.994911 *   2.43600    1.000000    
     37 Ti    c    0.000000 *  0.166667 *  0.930361 *   2.43600    1.000000    
     38 Ti    c    0.833333 *  0.833333 *  0.930361 *   2.43600    1.000000    
     39 Ti    c    0.666667 *  0.833333 *  0.930361 *   2.43600    1.000000    
     40 Ti    c    0.500000 *  0.833333 *  0.930361 *   2.43600    1.000000    
     41 Ti    c    0.333333 *  0.833333 *  0.930361 *   2.43600    1.000000    
     42 Ti    c    0.166667 *  0.833333 *  0.930361 *   2.43600    1.000000    
     43 Ti    c    0.000000 *  0.833333 *  0.930361 *   2.43600    1.000000    
     44 Ti    c    0.833333 *  0.500000 *  0.930361 *   2.43600    1.000000    
     45 Ti    c    0.666667 *  0.500000 *  0.930361 *   2.43600    1.000000    
     46 Ti    c    0.500000 *  0.500000 *  0.930361 *   2.43600    1.000000    
     47 Ti    c    0.333333 *  0.500000 *  0.930361 *   2.43600    1.000000    
     48 Ti    c    0.166667 *  0.500000 *  0.930361 *   2.43600    1.000000    
     49 Ti    c    0.000000 *  0.500000 *  0.930361 *   2.43600    1.000000    
     50 Ti    c    0.833333 *  0.166667 *  0.930361 *   2.43600    1.000000    
     51 Ti    c    0.666667 *  0.166667 *  0.930361 *   2.43600    1.000000    
     52 Ti    c    0.500000 *  0.166667 *  0.930361 *   2.43600    1.000000    
     53 Ti    c    0.333333 *  0.166667 *  0.930361 *   2.43600    1.000000    
     54 Ti    c    0.166667 *  0.166667 *  0.930361 *   2.43600    1.000000    
     55 Ti    c    0.083333 *  0.333333 *  0.932186 *   2.43600    1.000000    
     56 Ti    c    0.916667 *  0.000000 *  0.932186 *   2.43600    1.000000    
     57 Ti    c    0.750000 *  0.000000 *  0.932186 *   2.43600    1.000000    
     58 Ti    c    0.583333 *  0.000000 *  0.932186 *   2.43600    1.000000    
     59 Ti    c    0.416667 *  0.000000 *  0.932186 *   2.43600    1.000000    
     60 Ti    c    0.250000 *  0.000000 *  0.932186 *   2.43600    1.000000    
     61 Ti    c    0.083333 *  0.000000 *  0.932186 *   2.43600    1.000000    
     62 Ti    c    0.916667 *  0.666667 *  0.932186 *   2.43600    1.000000    
     63 Ti    c    0.750000 *  0.666667 *  0.932186 *   2.43600    1.000000    
     64 Ti    c    0.583333 *  0.666667 *  0.932186 *   2.43600    1.000000    
     65 Ti    c    0.416667 *  0.666667 *  0.932186 *   2.43600    1.000000    
     66 Ti    c    0.250000 *  0.666667 *  0.932186 *   2.43600    1.000000    
     67 Ti    c    0.083333 *  0.666667 *  0.932186 *   2.43600    1.000000    
     68 Ti    c    0.916667 *  0.333333 *  0.932186 *   2.43600    1.000000    
     69 Ti    c    0.750000 *  0.333333 *  0.932186 *   2.43600    1.000000    
     70 Ti    c    0.583333 *  0.333333 *  0.932186 *   2.43600    1.000000    
     71 Ti    c    0.416667 *  0.333333 *  0.932186 *   2.43600    1.000000    
     72 Ti    c    0.250000 *  0.333333 *  0.932186 *   2.43600    1.000000    
     73 Ti    c    0.000000 *  0.333333 *  0.866092 *   2.43600    1.000000    
     74 Ti    c    0.833333 *  0.000000 *  0.866092 *   2.43600    1.000000    
     75 Ti    c    0.666667 *  0.000000 *  0.866092 *   2.43600    1.000000    
     76 Ti    c    0.500000 *  0.000000 *  0.866092 *   2.43600    1.000000    
     77 Ti    c    0.333333 *  0.000000 *  0.866092 *   2.43600    1.000000    
     78 Ti    c    0.166667 *  0.000000 *  0.866092 *   2.43600    1.000000    
     79 Ti    c    0.000000 *  0.000000 *  0.866092 *   2.43600    1.000000    
     80 Ti    c    0.833333 *  0.666667 *  0.866092 *   2.43600    1.000000    
     81 Ti    c    0.666667 *  0.666667 *  0.866092 *   2.43600    1.000000    
     82 Ti    c    0.500000 *  0.666667 *  0.866092 *   2.43600    1.000000    
     83 Ti    c    0.333333 *  0.666667 *  0.866092 *   2.43600    1.000000    
     84 Ti    c    0.166667 *  0.666667 *  0.866092 *   2.43600    1.000000    
     85 Ti    c    0.000000 *  0.666667 *  0.866092 *   2.43600    1.000000    
     86 Ti    c    0.833333 *  0.333333 *  0.866092 *   2.43600    1.000000    
     87 Ti    c    0.666667 *  0.333333 *  0.866092 *   2.43600    1.000000    
     88 Ti    c    0.500000 *  0.333333 *  0.866092 *   2.43600    1.000000    
     89 Ti    c    0.333333 *  0.333333 *  0.866092 *   2.43600    1.000000    
     90 Ti    c    0.166667 *  0.333333 *  0.866092 *   2.43600    1.000000    
     91 Ti    c    0.083333 *  0.166667 *  0.866092 *   2.43600    1.000000    
     92 Ti    c    0.916667 *  0.833333 *  0.866092 *   2.43600    1.000000    
     93 Ti    c    0.750000 *  0.833333 *  0.866092 *   2.43600    1.000000    
     94 Ti    c    0.583333 *  0.833333 *  0.866092 *   2.43600    1.000000    
     95 Ti    c    0.416667 *  0.833333 *  0.866092 *   2.43600    1.000000    
     96 Ti    c    0.250000 *  0.833333 *  0.866092 *   2.43600    1.000000    
     97 Ti    c    0.083333 *  0.833333 *  0.866092 *   2.43600    1.000000    
     98 Ti    c    0.916667 *  0.500000 *  0.866092 *   2.43600    1.000000    
     99 Ti    c    0.750000 *  0.500000 *  0.866092 *   2.43600    1.000000    
    100 Ti    c    0.583333 *  0.500000 *  0.866092 *   2.43600    1.000000    
    101 Ti    c    0.416667 *  0.500000 *  0.866092 *   2.43600    1.000000    
    102 Ti    c    0.250000 *  0.500000 *  0.866092 *   2.43600    1.000000    
    103 Ti    c    0.083333 *  0.500000 *  0.866092 *   2.43600    1.000000    
    104 Ti    c    0.916667 *  0.166667 *  0.866092 *   2.43600    1.000000    
    105 Ti    c    0.750000 *  0.166667 *  0.866092 *   2.43600    1.000000    
    106 Ti    c    0.583333 *  0.166667 *  0.866092 *   2.43600    1.000000    
    107 Ti    c    0.416667 *  0.166667 *  0.866092 *   2.43600    1.000000    
    108 Ti    c    0.250000 *  0.166667 *  0.866092 *   2.43600    1.000000    
    109 Ti    c    0.000000 *  0.166667 *  0.801824 *   2.43600    1.000000    
    110 Ti    c    0.833333 *  0.833333 *  0.801824 *   2.43600    1.000000    
    111 Ti    c    0.666667 *  0.833333 *  0.801824 *   2.43600    1.000000    
    112 Ti    c    0.500000 *  0.833333 *  0.801824 *   2.43600    1.000000    
    113 Ti    c    0.333333 *  0.833333 *  0.801824 *   2.43600    1.000000    
    114 Ti    c    0.166667 *  0.833333 *  0.801824 *   2.43600    1.000000    
    115 Ti    c    0.000000 *  0.833333 *  0.801824 *   2.43600    1.000000    
    116 Ti    c    0.833333 *  0.500000 *  0.801824 *   2.43600    1.000000    
    117 Ti    c    0.666667 *  0.500000 *  0.801824 *   2.43600    1.000000    
    118 Ti    c    0.500000 *  0.500000 *  0.801824 *   2.43600    1.000000    
    119 Ti    c    0.333333 *  0.500000 *  0.801824 *   2.43600    1.000000    
    120 Ti    c    0.166667 *  0.500000 *  0.801824 *   2.43600    1.000000    
    121 Ti    c    0.000000 *  0.500000 *  0.801824 *   2.43600    1.000000    
    122 Ti    c    0.833333 *  0.166667 *  0.801824 *   2.43600    1.000000    
    123 Ti    c    0.666667 *  0.166667 *  0.801824 *   2.43600    1.000000    
    124 Ti    c    0.500000 *  0.166667 *  0.801824 *   2.43600    1.000000    
    125 Ti    c    0.333333 *  0.166667 *  0.801824 *   2.43600    1.000000    
    126 Ti    c    0.166667 *  0.166667 *  0.801824 *   2.43600    1.000000    
    127 Ti    c    0.083333 *  0.333333 *  0.799999 *   2.43600    1.000000    
    128 Ti    c    0.916667 *  0.000000 *  0.799999 *   2.43600    1.000000    
    129 Ti    c    0.750000 *  0.000000 *  0.799999 *   2.43600    1.000000    
    130 Ti    c    0.583333 *  0.000000 *  0.799999 *   2.43600    1.000000    
    131 Ti    c    0.416667 *  0.000000 *  0.799999 *   2.43600    1.000000    
    132 Ti    c    0.250000 *  0.000000 *  0.799999 *   2.43600    1.000000    
    133 Ti    c    0.083333 *  0.000000 *  0.799999 *   2.43600    1.000000    
    134 Ti    c    0.916667 *  0.666667 *  0.799999 *   2.43600    1.000000    
    135 Ti    c    0.750000 *  0.666667 *  0.799999 *   2.43600    1.000000    
    136 Ti    c    0.583333 *  0.666667 *  0.799999 *   2.43600    1.000000    
    137 Ti    c    0.416667 *  0.666667 *  0.799999 *   2.43600    1.000000    
    138 Ti    c    0.250000 *  0.666667 *  0.799999 *   2.43600    1.000000    
    139 Ti    c    0.083333 *  0.666667 *  0.799999 *   2.43600    1.000000    
    140 Ti    c    0.916667 *  0.333333 *  0.799999 *   2.43600    1.000000    
    141 Ti    c    0.750000 *  0.333333 *  0.799999 *   2.43600    1.000000    
    142 Ti    c    0.583333 *  0.333333 *  0.799999 *   2.43600    1.000000    
    143 Ti    c    0.416667 *  0.333333 *  0.799999 *   2.43600    1.000000    
    144 Ti    c    0.250000 *  0.333333 *  0.799999 *   2.43600    1.000000    
    145 Ti    c    0.083333 *  0.166667 *  0.737273 *   2.43600    1.000000    
    146 Ti    c    0.000000 *  0.333333 *  0.732185 *   2.43600    1.000000    
    147 Ti    c    0.916667 *  0.833333 *  0.737273 *   2.43600    1.000000    
    148 Ti    c    0.833333 *  0.000000 *  0.732185 *   2.43600    1.000000    
    149 Ti    c    0.750000 *  0.833333 *  0.737273 *   2.43600    1.000000    
    150 Ti    c    0.666667 *  0.000000 *  0.732185 *   2.43600    1.000000    
    151 Ti    c    0.583333 *  0.833333 *  0.737273 *   2.43600    1.000000    
    152 Ti    c    0.500000 *  0.000000 *  0.732185 *   2.43600    1.000000    
    153 Ti    c    0.416667 *  0.833333 *  0.737273 *   2.43600    1.000000    
    154 Ti    c    0.333333 *  0.000000 *  0.732185 *   2.43600    1.000000    
    155 Ti    c    0.250000 *  0.833333 *  0.737273 *   2.43600    1.000000    
    156 Ti    c    0.166667 *  0.000000 *  0.732185 *   2.43600    1.000000    
    157 Ti    c    0.083333 *  0.833333 *  0.737273 *   2.43600    1.000000    
    158 Ti    c    0.000000 *  0.000000 *  0.732185 *   2.43600    1.000000    
    159 Ti    c    0.916667 *  0.500000 *  0.737273 *   2.43600    1.000000    
    160 Ti    c    0.833333 *  0.666667 *  0.732185 *   2.43600    1.000000    
    161 Ti    c    0.750000 *  0.500000 *  0.737273 *   2.43600    1.000000    
    162 Ti3   c    0.666667 *  0.666667 *  0.732185 *   2.43600    1.000000    
    163 Ti    c    0.583333 *  0.500000 *  0.737273 *   2.43600    1.000000    
    164 Ti3   c    0.500000 *  0.666667 *  0.732185 *   2.43600    1.000000    
    165 Ti    c    0.416667 *  0.500000 *  0.737273 *   2.43600    1.000000    
    166 Ti    c    0.333333 *  0.666667 *  0.732185 *   2.43600    1.000000    
    167 Ti    c    0.250000 *  0.500000 *  0.737273 *   2.43600    1.000000    
    168 Ti    c    0.166667 *  0.666667 *  0.732185 *   2.43600    1.000000    
    169 Ti    c    0.083333 *  0.500000 *  0.737273 *   2.43600    1.000000    
    170 Ti    c    0.000000 *  0.666667 *  0.732185 *   2.43600    1.000000    
    171 Ti    c    0.916667 *  0.166667 *  0.737273 *   2.43600    1.000000    
    172 Ti    c    0.833333 *  0.333333 *  0.732185 *   2.43600    1.000000    
    173 Ti    c    0.750000 *  0.166667 *  0.737273 *   2.43600    1.000000    
    174 Ti    c    0.666667 *  0.333333 *  0.732185 *   2.43600    1.000000    
    175 Ti    c    0.583333 *  0.166667 *  0.737273 *   2.43600    1.000000    
    176 Ti    c    0.500000 *  0.333333 *  0.732185 *   2.43600    1.000000    
    177 Ti    c    0.416667 *  0.166667 *  0.737273 *   2.43600    1.000000    
    178 Ti    c    0.333333 *  0.333333 *  0.732185 *   2.43600    1.000000    
    179 Ti    c    0.250000 *  0.166667 *  0.737273 *   2.43600    1.000000    
    180 Ti    c    0.166667 *  0.333333 *  0.732185 *   2.43600    1.000000    
    181 O2    c    0.083333 *  0.333333 *  0.020728 *  -1.21800    1.000000    
    182 O2    c    0.916667 *  0.000000 *  0.020728 *  -1.21800    1.000000    
    183 O2    c    0.750000 *  0.000000 *  0.020728 *  -1.21800    1.000000    
    184 O2    c    0.583333 *  0.000000 *  0.020728 *  -1.21800    1.000000    
    185 O2    c    0.416667 *  0.000000 *  0.020728 *  -1.21800    1.000000    
    186 O2    c    0.250000 *  0.000000 *  0.020728 *  -1.21800    1.000000    
    187 O2    c    0.083333 *  0.000000 *  0.020728 *  -1.21800    1.000000    
    188 O2    c    0.916667 *  0.666667 *  0.020728 *  -1.21800    1.000000    
    189 O2    c    0.750000 *  0.666667 *  0.020728 *  -1.21800    1.000000    
    190 O2    c    0.583333 *  0.666667 *  0.020728 *  -1.21800    1.000000    
    191 O2    c    0.416667 *  0.666667 *  0.020728 *  -1.21800    1.000000    
    192 O2    c    0.250000 *  0.666667 *  0.020728 *  -1.21800    1.000000    
    193 O2    c    0.083333 *  0.666667 *  0.020728 *  -1.21800    1.000000    
    194 O2    c    0.916667 *  0.333333 *  0.020728 *  -1.21800    1.000000    
    195 O2    c    0.750000 *  0.333333 *  0.020728 *  -1.21800    1.000000    
    196 O2    c    0.583333 *  0.333333 *  0.020728 *  -1.21800    1.000000    
    197 O2    c    0.416667 *  0.333333 *  0.020728 *  -1.21800    1.000000    
    198 O2    c    0.250000 *  0.333333 *  0.020728 *  -1.21800    1.000000    
    199 O2    c    0.833333 *  0.772670 *  0.998297 *  -1.21800    1.000000    
    200 O2    c    0.666667 *  0.772670 *  0.998297 *  -1.21800    1.000000    
    201 O2    c    0.500000 *  0.772670 *  0.998297 *  -1.21800    1.000000    
    202 O2    c    0.333333 *  0.772670 *  0.998297 *  -1.21800    1.000000    
    203 O2    c    0.166667 *  0.772670 *  0.998297 *  -1.21800    1.000000    
    204 O2    c    0.000000 *  0.772670 *  0.998297 *  -1.21800    1.000000    
    205 O2    c    0.833333 *  0.439336 *  0.998297 *  -1.21800    1.000000    
    206 O2    c    0.666667 *  0.439336 *  0.998297 *  -1.21800    1.000000    
    207 O2    c    0.500000 *  0.439336 *  0.998297 *  -1.21800    1.000000    
    208 O2    c    0.333333 *  0.439336 *  0.998297 *  -1.21800    1.000000    
    209 O2    c    0.166667 *  0.439336 *  0.998297 *  -1.21800    1.000000    
    210 O2    c    0.000000 *  0.439336 *  0.998297 *  -1.21800    1.000000    
    211 O2    c    0.666667 *  0.106003 *  0.998297 *  -1.21800    1.000000    
    212 O2    c    0.166667 *  0.106003 *  0.998297 *  -1.21800    1.000000    
    213 O2    c    0.000000 *  0.106003 *  0.998297 *  -1.21800    1.000000    
    214 O2    c    0.833333 *  0.106003 *  0.998297 *  -1.21800    1.000000    
    215 O2    c    0.500000 *  0.106003 *  0.998297 *  -1.21800    1.000000    
    216 O2    c    0.333333 *  0.106003 *  0.998297 *  -1.21800    1.000000    
    217 O2    c    0.000000 *  0.227330 *  0.998297 *  -1.21800    1.000000    
    218 O2    c    0.833333 *  0.893997 *  0.998297 *  -1.21800    1.000000    
    219 O2    c    0.666667 *  0.893997 *  0.998297 *  -1.21800    1.000000    
    220 O2    c    0.500000 *  0.893997 *  0.998297 *  -1.21800    1.000000    
    221 O2    c    0.333333 *  0.893997 *  0.998297 *  -1.21800    1.000000    
    222 O2    c    0.166667 *  0.893997 *  0.998297 *  -1.21800    1.000000    
    223 O2    c    0.000000 *  0.893997 *  0.998297 *  -1.21800    1.000000    
    224 O2    c    0.666667 *  0.560663 *  0.998297 *  -1.21800    1.000000    
    225 O2    c    0.166667 *  0.560663 *  0.998297 *  -1.21800    1.000000    
    226 O2    c    0.000000 *  0.560663 *  0.998297 *  -1.21800    1.000000    
    227 O2    c    0.833333 *  0.227330 *  0.998297 *  -1.21800    1.000000    
    228 O2    c    0.666667 *  0.227330 *  0.998297 *  -1.21800    1.000000    
    229 O2    c    0.500000 *  0.227330 *  0.998297 *  -1.21800    1.000000    
    230 O2    c    0.333333 *  0.227330 *  0.998297 *  -1.21800    1.000000    
    231 O2    c    0.166667 *  0.227330 *  0.998297 *  -1.21800    1.000000    
    232 O2    c    0.833333 *  0.560663 *  0.998297 *  -1.21800    1.000000    
    233 O2    c    0.500000 *  0.560663 *  0.998297 *  -1.21800    1.000000    
    234 O2    c    0.333333 *  0.560663 *  0.998297 *  -1.21800    1.000000    
    235 O2    c    0.083333 *  0.333333 *  0.971642 *  -1.21800    1.000000    
    236 O2    c    0.916667 *  0.000000 *  0.971642 *  -1.21800    1.000000    
    237 O2    c    0.750000 *  0.000000 *  0.971642 *  -1.21800    1.000000    
    238 O2    c    0.583333 *  0.000000 *  0.971642 *  -1.21800    1.000000    
    239 O2    c    0.416667 *  0.000000 *  0.971642 *  -1.21800    1.000000    
    240 O2    c    0.250000 *  0.000000 *  0.971642 *  -1.21800    1.000000    
    241 O2    c    0.083333 *  0.000000 *  0.971642 *  -1.21800    1.000000    
    242 O2    c    0.916667 *  0.666667 *  0.971642 *  -1.21800    1.000000    
    243 O2    c    0.750000 *  0.666667 *  0.971642 *  -1.21800    1.000000    
    244 O2    c    0.583333 *  0.666667 *  0.971642 *  -1.21800    1.000000    
    245 O2    c    0.416667 *  0.666667 *  0.971642 *  -1.21800    1.000000    
    246 O2    c    0.250000 *  0.666667 *  0.971642 *  -1.21800    1.000000    
    247 O2    c    0.083333 *  0.666667 *  0.971642 *  -1.21800    1.000000    
    248 O2    c    0.916667 *  0.333333 *  0.971642 *  -1.21800    1.000000    
    249 O2    c    0.750000 *  0.333333 *  0.971642 *  -1.21800    1.000000    
    250 O2    c    0.583333 *  0.333333 *  0.971642 *  -1.21800    1.000000    
    251 O2    c    0.416667 *  0.333333 *  0.971642 *  -1.21800    1.000000    
    252 O2    c    0.250000 *  0.333333 *  0.971642 *  -1.21800    1.000000    
    253 O2    c    0.083333 *  0.166667 *  0.956222 *  -1.21800    1.000000    
    254 O2    c    0.916667 *  0.833333 *  0.956222 *  -1.21800    1.000000    
    255 O2    c    0.750000 *  0.833333 *  0.956222 *  -1.21800    1.000000    
    256 O2    c    0.583333 *  0.833333 *  0.956222 *  -1.21800    1.000000    
    257 O2    c    0.416667 *  0.833333 *  0.956222 *  -1.21800    1.000000    
    258 O2    c    0.250000 *  0.833333 *  0.956222 *  -1.21800    1.000000    
    259 O2    c    0.083333 *  0.833333 *  0.956222 *  -1.21800    1.000000    
    260 O2    c    0.916667 *  0.500000 *  0.956222 *  -1.21800    1.000000    
    261 O2    c    0.750000 *  0.500000 *  0.956222 *  -1.21800    1.000000    
    262 O2    c    0.583333 *  0.500000 *  0.956222 *  -1.21800    1.000000    
    263 O2    c    0.416667 *  0.500000 *  0.956222 *  -1.21800    1.000000    
    264 O2    c    0.250000 *  0.500000 *  0.956222 *  -1.21800    1.000000    
    265 O2    c    0.083333 *  0.500000 *  0.956222 *  -1.21800    1.000000    
    266 O2    c    0.916667 *  0.166667 *  0.956222 *  -1.21800    1.000000    
    267 O2    c    0.750000 *  0.166667 *  0.956222 *  -1.21800    1.000000    
    268 O2    c    0.583333 *  0.166667 *  0.956222 *  -1.21800    1.000000    
    269 O2    c    0.416667 *  0.166667 *  0.956222 *  -1.21800    1.000000    
    270 O2    c    0.250000 *  0.166667 *  0.956222 *  -1.21800    1.000000    
    271 O2    c    0.000000 *  0.267805 *  0.931404 *  -1.21800    1.000000    
    272 O2    c    0.000000 *  0.065529 *  0.931404 *  -1.21800    1.000000    
    273 O2    c    0.833333 *  0.934471 *  0.931404 *  -1.21800    1.000000    
    274 O2    c    0.833333 *  0.732195 *  0.931404 *  -1.21800    1.000000    
    275 O2    c    0.666667 *  0.934471 *  0.931404 *  -1.21800    1.000000    
    276 O2    c    0.666667 *  0.732195 *  0.931404 *  -1.21800    1.000000    
    277 O2    c    0.500000 *  0.934471 *  0.931404 *  -1.21800    1.000000    
    278 O2    c    0.500000 *  0.732195 *  0.931404 *  -1.21800    1.000000    
    279 O2    c    0.333333 *  0.934471 *  0.931404 *  -1.21800    1.000000    
    280 O2    c    0.333333 *  0.732195 *  0.931404 *  -1.21800    1.000000    
    281 O2    c    0.166667 *  0.934471 *  0.931404 *  -1.21800    1.000000    
    282 O2    c    0.166667 *  0.732195 *  0.931404 *  -1.21800    1.000000    
    283 O2    c    0.000000 *  0.934471 *  0.931404 *  -1.21800    1.000000    
    284 O2    c    0.000000 *  0.732195 *  0.931404 *  -1.21800    1.000000    
    285 O2    c    0.833333 *  0.601138 *  0.931404 *  -1.21800    1.000000    
    286 O2    c    0.833333 *  0.398862 *  0.931404 *  -1.21800    1.000000    
    287 O2    c    0.666667 *  0.601138 *  0.931404 *  -1.21800    1.000000    
    288 O2    c    0.666667 *  0.398862 *  0.931404 *  -1.21800    1.000000    
    289 O2    c    0.500000 *  0.601138 *  0.931404 *  -1.21800    1.000000    
    290 O2    c    0.500000 *  0.398862 *  0.931404 *  -1.21800    1.000000    
    291 O2    c    0.333333 *  0.601138 *  0.931404 *  -1.21800    1.000000    
    292 O2    c    0.333333 *  0.398862 *  0.931404 *  -1.21800    1.000000    
    293 O2    c    0.166667 *  0.601138 *  0.931404 *  -1.21800    1.000000    
    294 O2    c    0.166667 *  0.398862 *  0.931404 *  -1.21800    1.000000    
    295 O2    c    0.000000 *  0.601138 *  0.931404 *  -1.21800    1.000000    
    296 O2    c    0.000000 *  0.398862 *  0.931404 *  -1.21800    1.000000    
    297 O2    c    0.833333 *  0.267805 *  0.931404 *  -1.21800    1.000000    
    298 O2    c    0.833333 *  0.065529 *  0.931404 *  -1.21800    1.000000    
    299 O2    c    0.666667 *  0.267805 *  0.931404 *  -1.21800    1.000000    
    300 O2    c    0.666667 *  0.065529 *  0.931404 *  -1.21800    1.000000    
    301 O2    c    0.500000 *  0.267805 *  0.931404 *  -1.21800    1.000000    
    302 O2    c    0.500000 *  0.065529 *  0.931404 *  -1.21800    1.000000    
    303 O2    c    0.333333 *  0.267805 *  0.931404 *  -1.21800    1.000000    
    304 O2    c    0.333333 *  0.065529 *  0.931404 *  -1.21800    1.000000    
    305 O2    c    0.166667 *  0.267805 *  0.931404 *  -1.21800    1.000000    
    306 O2    c    0.166667 *  0.065529 *  0.931404 *  -1.21800    1.000000    
    307 O2    c    0.083333 *  0.166667 *  0.905429 *  -1.21800    1.000000    
    308 O2    c    0.916667 *  0.833333 *  0.905429 *  -1.21800    1.000000    
    309 O2    c    0.750000 *  0.833333 *  0.905429 *  -1.21800    1.000000    
    310 O2    c    0.583333 *  0.833333 *  0.905429 *  -1.21800    1.000000    
    311 O2    c    0.416667 *  0.833333 *  0.905429 *  -1.21800    1.000000    
    312 O2    c    0.250000 *  0.833333 *  0.905429 *  -1.21800    1.000000    
    313 O2    c    0.083333 *  0.833333 *  0.905429 *  -1.21800    1.000000    
    314 O2    c    0.916667 *  0.500000 *  0.905429 *  -1.21800    1.000000    
    315 O2    c    0.750000 *  0.500000 *  0.905429 *  -1.21800    1.000000    
    316 O2    c    0.583333 *  0.500000 *  0.905429 *  -1.21800    1.000000    
    317 O2    c    0.416667 *  0.500000 *  0.905429 *  -1.21800    1.000000    
    318 O2    c    0.250000 *  0.500000 *  0.905429 *  -1.21800    1.000000    
    319 O2    c    0.083333 *  0.500000 *  0.905429 *  -1.21800    1.000000    
    320 O2    c    0.916667 *  0.166667 *  0.905429 *  -1.21800    1.000000    
    321 O2    c    0.750000 *  0.166667 *  0.905429 *  -1.21800    1.000000    
    322 O2    c    0.583333 *  0.166667 *  0.905429 *  -1.21800    1.000000    
    323 O2    c    0.416667 *  0.166667 *  0.905429 *  -1.21800    1.000000    
    324 O2    c    0.250000 *  0.166667 *  0.905429 *  -1.21800    1.000000    
    325 O2    c    0.083333 *  0.333333 *  0.891777 *  -1.21800    1.000000    
    326 O2    c    0.916667 *  0.000000 *  0.891777 *  -1.21800    1.000000    
    327 O2    c    0.750000 *  0.000000 *  0.891777 *  -1.21800    1.000000    
    328 O2    c    0.583333 *  0.000000 *  0.891777 *  -1.21800    1.000000    
    329 O2    c    0.416667 *  0.000000 *  0.891777 *  -1.21800    1.000000    
    330 O2    c    0.250000 *  0.000000 *  0.891777 *  -1.21800    1.000000    
    331 O2    c    0.083333 *  0.000000 *  0.891777 *  -1.21800    1.000000    
    332 O2    c    0.916667 *  0.666667 *  0.891777 *  -1.21800    1.000000    
    333 O2    c    0.750000 *  0.666667 *  0.891777 *  -1.21800    1.000000    
    334 O2    c    0.583333 *  0.666667 *  0.891777 *  -1.21800    1.000000    
    335 O2    c    0.416667 *  0.666667 *  0.891777 *  -1.21800    1.000000    
    336 O2    c    0.250000 *  0.666667 *  0.891777 *  -1.21800    1.000000    
    337 O2    c    0.083333 *  0.666667 *  0.891777 *  -1.21800    1.000000    
    338 O2    c    0.916667 *  0.333333 *  0.891777 *  -1.21800    1.000000    
    339 O2    c    0.750000 *  0.333333 *  0.891777 *  -1.21800    1.000000    
    340 O2    c    0.583333 *  0.333333 *  0.891777 *  -1.21800    1.000000    
    341 O2    c    0.416667 *  0.333333 *  0.891777 *  -1.21800    1.000000    
    342 O2    c    0.250000 *  0.333333 *  0.891777 *  -1.21800    1.000000    
    343 O2    c    0.000000 *  0.101862 *  0.866092 *  -1.21800    1.000000    
    344 O2    c    0.000000 *  0.231471 *  0.866092 *  -1.21800    1.000000    
    345 O2    c    0.833333 *  0.768529 *  0.866092 *  -1.21800    1.000000    
    346 O2    c    0.833333 *  0.898138 *  0.866092 *  -1.21800    1.000000    
    347 O2    c    0.666667 *  0.768529 *  0.866092 *  -1.21800    1.000000    
    348 O2    c    0.666667 *  0.898138 *  0.866092 *  -1.21800    1.000000    
    349 O2    c    0.500000 *  0.768529 *  0.866092 *  -1.21800    1.000000    
    350 O2    c    0.500000 *  0.898138 *  0.866092 *  -1.21800    1.000000    
    351 O2    c    0.333333 *  0.768529 *  0.866092 *  -1.21800    1.000000    
    352 O2    c    0.333333 *  0.898138 *  0.866092 *  -1.21800    1.000000    
    353 O2    c    0.166667 *  0.768529 *  0.866092 *  -1.21800    1.000000    
    354 O2    c    0.166667 *  0.898138 *  0.866092 *  -1.21800    1.000000    
    355 O2    c    0.000000 *  0.768529 *  0.866092 *  -1.21800    1.000000    
    356 O2    c    0.000000 *  0.898138 *  0.866092 *  -1.21800    1.000000    
    357 O2    c    0.833333 *  0.435195 *  0.866092 *  -1.21800    1.000000    
    358 O2    c    0.833333 *  0.564805 *  0.866092 *  -1.21800    1.000000    
    359 O2    c    0.666667 *  0.435195 *  0.866092 *  -1.21800    1.000000    
    360 O2    c    0.666667 *  0.564805 *  0.866092 *  -1.21800    1.000000    
    361 O2    c    0.500000 *  0.435195 *  0.866092 *  -1.21800    1.000000    
    362 O2    c    0.500000 *  0.564805 *  0.866092 *  -1.21800    1.000000    
    363 O2    c    0.333333 *  0.435195 *  0.866092 *  -1.21800    1.000000    
    364 O2    c    0.333333 *  0.564805 *  0.866092 *  -1.21800    1.000000    
    365 O2    c    0.166667 *  0.435195 *  0.866092 *  -1.21800    1.000000    
    366 O2    c    0.166667 *  0.564805 *  0.866092 *  -1.21800    1.000000    
    367 O2    c    0.000000 *  0.435195 *  0.866092 *  -1.21800    1.000000    
    368 O2    c    0.000000 *  0.564805 *  0.866092 *  -1.21800    1.000000    
    369 O2    c    0.833333 *  0.101862 *  0.866092 *  -1.21800    1.000000    
    370 O2    c    0.833333 *  0.231471 *  0.866092 *  -1.21800    1.000000    
    371 O2    c    0.666667 *  0.101862 *  0.866092 *  -1.21800    1.000000    
    372 O2    c    0.666667 *  0.231471 *  0.866092 *  -1.21800    1.000000    
    373 O2    c    0.500000 *  0.101862 *  0.866092 *  -1.21800    1.000000    
    374 O2    c    0.500000 *  0.231471 *  0.866092 *  -1.21800    1.000000    
    375 O2    c    0.333333 *  0.101862 *  0.866092 *  -1.21800    1.000000    
    376 O2    c    0.333333 *  0.231471 *  0.866092 *  -1.21800    1.000000    
    377 O2    c    0.166667 *  0.101862 *  0.866092 *  -1.21800    1.000000    
    378 O2    c    0.166667 *  0.231471 *  0.866092 *  -1.21800    1.000000    
    379 O2    c    0.083333 *  0.333333 *  0.840408 *  -1.21800    1.000000    
    380 O2    c    0.916667 *  0.000000 *  0.840408 *  -1.21800    1.000000    
    381 O2    c    0.750000 *  0.000000 *  0.840408 *  -1.21800    1.000000    
    382 O2    c    0.583333 *  0.000000 *  0.840408 *  -1.21800    1.000000    
    383 O2    c    0.416667 *  0.000000 *  0.840408 *  -1.21800    1.000000    
    384 O2    c    0.250000 *  0.000000 *  0.840408 *  -1.21800    1.000000    
    385 O2    c    0.083333 *  0.000000 *  0.840408 *  -1.21800    1.000000    
    386 O2    c    0.916667 *  0.666667 *  0.840408 *  -1.21800    1.000000    
    387 O2    c    0.750000 *  0.666667 *  0.840408 *  -1.21800    1.000000    
    388 O2    c    0.583333 *  0.666667 *  0.840408 *  -1.21800    1.000000    
    389 O2    c    0.416667 *  0.666667 *  0.840408 *  -1.21800    1.000000    
    390 O2    c    0.250000 *  0.666667 *  0.840408 *  -1.21800    1.000000    
    391 O2    c    0.083333 *  0.666667 *  0.840408 *  -1.21800    1.000000    
    392 O2    c    0.916667 *  0.333333 *  0.840408 *  -1.21800    1.000000    
    393 O2    c    0.750000 *  0.333333 *  0.840408 *  -1.21800    1.000000    
    394 O2    c    0.583333 *  0.333333 *  0.840408 *  -1.21800    1.000000    
    395 O2    c    0.416667 *  0.333333 *  0.840408 *  -1.21800    1.000000    
    396 O2    c    0.250000 *  0.333333 *  0.840408 *  -1.21800    1.000000    
    397 O2    c    0.083333 *  0.166667 *  0.826755 *  -1.21800    1.000000    
    398 O2    c    0.916667 *  0.833333 *  0.826755 *  -1.21800    1.000000    
    399 O2    c    0.750000 *  0.833333 *  0.826755 *  -1.21800    1.000000    
    400 O2    c    0.583333 *  0.833333 *  0.826755 *  -1.21800    1.000000    
    401 O2    c    0.416667 *  0.833333 *  0.826755 *  -1.21800    1.000000    
    402 O2    c    0.250000 *  0.833333 *  0.826755 *  -1.21800    1.000000    
    403 O2    c    0.083333 *  0.833333 *  0.826755 *  -1.21800    1.000000    
    404 O2    c    0.916667 *  0.500000 *  0.826755 *  -1.21800    1.000000    
    405 O2    c    0.750000 *  0.500000 *  0.826755 *  -1.21800    1.000000    
    406 O2    c    0.583333 *  0.500000 *  0.826755 *  -1.21800    1.000000    
    407 O2    c    0.416667 *  0.500000 *  0.826755 *  -1.21800    1.000000    
    408 O2    c    0.250000 *  0.500000 *  0.826755 *  -1.21800    1.000000    
    409 O2    c    0.083333 *  0.500000 *  0.826755 *  -1.21800    1.000000    
    410 O2    c    0.916667 *  0.166667 *  0.826755 *  -1.21800    1.000000    
    411 O2    c    0.750000 *  0.166667 *  0.826755 *  -1.21800    1.000000    
    412 O2    c    0.583333 *  0.166667 *  0.826755 *  -1.21800    1.000000    
    413 O2    c    0.416667 *  0.166667 *  0.826755 *  -1.21800    1.000000    
    414 O2    c    0.250000 *  0.166667 *  0.826755 *  -1.21800    1.000000    
    415 O2    c    0.000000 *  0.267805 *  0.800781 *  -1.21800    1.000000    
    416 O2    c    0.000000 *  0.065529 *  0.800781 *  -1.21800    1.000000    
    417 O2    c    0.833333 *  0.934471 *  0.800781 *  -1.21800    1.000000    
    418 O2    c    0.833333 *  0.732195 *  0.800781 *  -1.21800    1.000000    
    419 O2    c    0.666667 *  0.934471 *  0.800781 *  -1.21800    1.000000    
    420 O2    c    0.666667 *  0.732195 *  0.800781 *  -1.21800    1.000000    
    421 O2    c    0.500000 *  0.934471 *  0.800781 *  -1.21800    1.000000    
    422 O2    c    0.500000 *  0.732195 *  0.800781 *  -1.21800    1.000000    
    423 O2    c    0.333333 *  0.934471 *  0.800781 *  -1.21800    1.000000    
    424 O2    c    0.333333 *  0.732195 *  0.800781 *  -1.21800    1.000000    
    425 O2    c    0.166667 *  0.934471 *  0.800781 *  -1.21800    1.000000    
    426 O2    c    0.166667 *  0.732195 *  0.800781 *  -1.21800    1.000000    
    427 O2    c    0.000000 *  0.934471 *  0.800781 *  -1.21800    1.000000    
    428 O2    c    0.000000 *  0.732195 *  0.800781 *  -1.21800    1.000000    
    429 O2    c    0.833333 *  0.601138 *  0.800781 *  -1.21800    1.000000    
    430 O2    c    0.833333 *  0.398862 *  0.800781 *  -1.21800    1.000000    
    431 O2    c    0.666667 *  0.601138 *  0.800781 *  -1.21800    1.000000    
    432 O2    c    0.666667 *  0.398862 *  0.800781 *  -1.21800    1.000000    
    433 O2    c    0.500000 *  0.601138 *  0.800781 *  -1.21800    1.000000    
    434 O2    c    0.500000 *  0.398862 *  0.800781 *  -1.21800    1.000000    
    435 O2    c    0.333333 *  0.601138 *  0.800781 *  -1.21800    1.000000    
    436 O2    c    0.333333 *  0.398862 *  0.800781 *  -1.21800    1.000000    
    437 O2    c    0.166667 *  0.601138 *  0.800781 *  -1.21800    1.000000    
    438 O2    c    0.166667 *  0.398862 *  0.800781 *  -1.21800    1.000000    
    439 O2    c    0.000000 *  0.601138 *  0.800781 *  -1.21800    1.000000    
    440 O2    c    0.000000 *  0.398862 *  0.800781 *  -1.21800    1.000000    
    441 O2    c    0.833333 *  0.267805 *  0.800781 *  -1.21800    1.000000    
    442 O2    c    0.833333 *  0.065529 *  0.800781 *  -1.21800    1.000000    
    443 O2    c    0.666667 *  0.267805 *  0.800781 *  -1.21800    1.000000    
    444 O2    c    0.666667 *  0.065529 *  0.800781 *  -1.21800    1.000000    
    445 O2    c    0.500000 *  0.267805 *  0.800781 *  -1.21800    1.000000    
    446 O2    c    0.500000 *  0.065529 *  0.800781 *  -1.21800    1.000000    
    447 O2    c    0.333333 *  0.267805 *  0.800781 *  -1.21800    1.000000    
    448 O2    c    0.333333 *  0.065529 *  0.800781 *  -1.21800    1.000000    
    449 O2    c    0.166667 *  0.267805 *  0.800781 *  -1.21800    1.000000    
    450 O2    c    0.166667 *  0.065529 *  0.800781 *  -1.21800    1.000000    
    451 O2    c    0.083333 *  0.166667 *  0.775963 *  -1.21800    1.000000    
    452 O2    c    0.916667 *  0.833333 *  0.775963 *  -1.21800    1.000000    
    453 O2    c    0.750000 *  0.833333 *  0.775963 *  -1.21800    1.000000    
    454 O2    c    0.583333 *  0.833333 *  0.775963 *  -1.21800    1.000000    
    455 O2    c    0.416667 *  0.833333 *  0.775963 *  -1.21800    1.000000    
    456 O2    c    0.250000 *  0.833333 *  0.775963 *  -1.21800    1.000000    
    457 O2    c    0.083333 *  0.833333 *  0.775963 *  -1.21800    1.000000    
    458 O2    c    0.916667 *  0.500000 *  0.775963 *  -1.21800    1.000000    
    459 O2    c    0.750000 *  0.500000 *  0.775963 *  -1.21800    1.000000    
    460 O2    c    0.583333 *  0.500000 *  0.775963 *  -1.21800    1.000000    
    461 O2    c    0.416667 *  0.500000 *  0.775963 *  -1.21800    1.000000    
    462 O2    c    0.250000 *  0.500000 *  0.775963 *  -1.21800    1.000000    
    463 O2    c    0.083333 *  0.500000 *  0.775963 *  -1.21800    1.000000    
    464 O2    c    0.916667 *  0.166667 *  0.775963 *  -1.21800    1.000000    
    465 O2    c    0.750000 *  0.166667 *  0.775963 *  -1.21800    1.000000    
    466 O2    c    0.583333 *  0.166667 *  0.775963 *  -1.21800    1.000000    
    467 O2    c    0.416667 *  0.166667 *  0.775963 *  -1.21800    1.000000    
    468 O2    c    0.250000 *  0.166667 *  0.775963 *  -1.21800    1.000000    
    469 O2    c    0.083333 *  0.333333 *  0.760542 *  -1.21800    1.000000    
    470 O2    c    0.916667 *  0.000000 *  0.760542 *  -1.21800    1.000000    
    471 O2    c    0.750000 *  0.000000 *  0.760542 *  -1.21800    1.000000    
    472 O2    c    0.583333 *  0.000000 *  0.760542 *  -1.21800    1.000000    
    473 O2    c    0.416667 *  0.000000 *  0.760542 *  -1.21800    1.000000    
    474 O2    c    0.250000 *  0.000000 *  0.760542 *  -1.21800    1.000000    
    475 O2    c    0.083333 *  0.000000 *  0.760542 *  -1.21800    1.000000    
    476 O2    c    0.916667 *  0.666667 *  0.760542 *  -1.21800    1.000000    
    477 O2    c    0.750000 *  0.666667 *  0.760542 *  -1.21800    1.000000    
    478 O2    c    0.583333 *  0.666667 *  0.760542 *  -1.21800    1.000000    
    479 O2    c    0.416667 *  0.666667 *  0.760542 *  -1.21800    1.000000    
    480 O2    c    0.250000 *  0.666667 *  0.760542 *  -1.21800    1.000000    
    481 O2    c    0.083333 *  0.666667 *  0.760542 *  -1.21800    1.000000    
    482 O2    c    0.916667 *  0.333333 *  0.760542 *  -1.21800    1.000000    
    483 O2    c    0.750000 *  0.333333 *  0.760542 *  -1.21800    1.000000    
    484 O2    c    0.583333 *  0.333333 *  0.760542 *  -1.21800    1.000000    
    485 O2    c    0.416667 *  0.333333 *  0.760542 *  -1.21800    1.000000    
    486 O2    c    0.250000 *  0.333333 *  0.760542 *  -1.21800    1.000000    
    487 O2    c    0.000000 *  0.106003 *  0.733888 *  -1.21800    1.000000    
    488 O2    c    0.833333 *  0.772670 *  0.733888 *  -1.21800    1.000000    
    489 O2    c    0.666667 *  0.772670 *  0.733888 *  -1.21800    1.000000    
    490 O2    c    0.500000 *  0.772670 *  0.733888 *  -1.21800    1.000000    
    491 O2    c    0.333333 *  0.772670 *  0.733888 *  -1.21800    1.000000    
    492 O2    c    0.166667 *  0.772670 *  0.733888 *  -1.21800    1.000000    
    493 O2    c    0.000000 *  0.772670 *  0.733888 *  -1.21800    1.000000    
    494 O2    c    0.833333 *  0.439336 *  0.733888 *  -1.21800    1.000000    
    495 O2    c    0.666667 *  0.439336 *  0.733888 *  -1.21800    1.000000    
    496 O2    c    0.500000 *  0.439336 *  0.733888 *  -1.21800    1.000000    
    497 O2    c    0.333333 *  0.439336 *  0.733888 *  -1.21800    1.000000    
    498 O2    c    0.166667 *  0.439336 *  0.733888 *  -1.21800    1.000000    
    499 O2    c    0.000000 *  0.439336 *  0.733888 *  -1.21800    1.000000    
    500 O2    c    0.833333 *  0.106003 *  0.733888 *  -1.21800    1.000000    
    501 O2    c    0.666667 *  0.106003 *  0.733888 *  -1.21800    1.000000    
    502 O2    c    0.500000 *  0.106003 *  0.733888 *  -1.21800    1.000000    
    503 O2    c    0.333333 *  0.106003 *  0.733888 *  -1.21800    1.000000    
    504 O2    c    0.166667 *  0.106003 *  0.733888 *  -1.21800    1.000000    
    505 O2    c    0.000000 *  0.227330 *  0.733888 *  -1.21800    1.000000    
    506 O2    c    0.833333 *  0.893997 *  0.733888 *  -1.21800    1.000000    
    507 O2    c    0.666667 *  0.893997 *  0.733888 *  -1.21800    1.000000    
    508 O2    c    0.500000 *  0.893997 *  0.733888 *  -1.21800    1.000000    
    509 O2    c    0.333333 *  0.893997 *  0.733888 *  -1.21800    1.000000    
    510 O2    c    0.166667 *  0.893997 *  0.733888 *  -1.21800    1.000000    
    511 O2    c    0.000000 *  0.893997 *  0.733888 *  -1.21800    1.000000    
    512 O2    c    0.833333 *  0.560663 *  0.733888 *  -1.21800    1.000000    
    513 O2    c    0.666667 *  0.560663 *  0.733888 *  -1.21800    1.000000    
    514 O2    c    0.500000 *  0.560663 *  0.733888 *  -1.21800    1.000000    
    515 O2    c    0.333333 *  0.560663 *  0.733888 *  -1.21800    1.000000    
    516 O2    c    0.166667 *  0.560663 *  0.733888 *  -1.21800    1.000000    
    517 O2    c    0.000000 *  0.560663 *  0.733888 *  -1.21800    1.000000    
    518 O2    c    0.833333 *  0.227330 *  0.733888 *  -1.21800    1.000000    
    519 O2    c    0.666667 *  0.227330 *  0.733888 *  -1.21800    1.000000    
    520 O2    c    0.500000 *  0.227330 *  0.733888 *  -1.21800    1.000000    
    521 O2    c    0.333333 *  0.227330 *  0.733888 *  -1.21800    1.000000    
    522 O2    c    0.166667 *  0.227330 *  0.733888 *  -1.21800    1.000000    
    523 O2    c    0.083333 *  0.333333 *  0.711457 *  -1.21800    1.000000    
    524 O2    c    0.916667 *  0.000000 *  0.711457 *  -1.21800    1.000000    
    525 O2    c    0.750000 *  0.000000 *  0.711457 *  -1.21800    1.000000    
    526 O2    c    0.583333 *  0.000000 *  0.711457 *  -1.21800    1.000000    
    527 O2    c    0.416667 *  0.000000 *  0.711457 *  -1.21800    1.000000    
    528 O2    c    0.250000 *  0.000000 *  0.711457 *  -1.21800    1.000000    
    529 O2    c    0.083333 *  0.000000 *  0.711457 *  -1.21800    1.000000    
    530 O2    c    0.916667 *  0.666667 *  0.711457 *  -1.21800    1.000000    
    531 O2    c    0.750000 *  0.666667 *  0.711457 *  -1.21800    1.000000    
    532 O3    c    0.583333 *  0.666667 *  0.711457 *  -0.33800    1.000000    
    533 O2    c    0.416667 *  0.666667 *  0.711457 *  -1.21800    1.000000    
    534 O2    c    0.250000 *  0.666667 *  0.711457 *  -1.21800    1.000000    
    535 O2    c    0.083333 *  0.666667 *  0.711457 *  -1.21800    1.000000    
    536 O2    c    0.916667 *  0.333333 *  0.711457 *  -1.21800    1.000000    
    537 O2    c    0.750000 *  0.333333 *  0.711457 *  -1.21800    1.000000    
    538 O2    c    0.583333 *  0.333333 *  0.711457 *  -1.21800    1.000000    
    539 O2    c    0.416667 *  0.333333 *  0.711457 *  -1.21800    1.000000    
    540 O2    c    0.250000 *  0.333333 *  0.711457 *  -1.21800    1.000000    
    541 H22   c    0.583333 *  0.666667 *  0.691457 *   0.12000    1.000000    
--------------------------------------------------------------------------------



  Molecule list generated from bond lengths :

  Total number of molecules =     1

--------------------------------------------------------------------------------
Molecule No./:  Atoms
Periodicity  :  
--------------------------------------------------------------------------------
     1  0    : O3   c   532 H22  c   541
--------------------------------------------------------------------------------


********************************************************************************
*  General input information                                                   *
********************************************************************************

  Species output for all configurations : 

--------------------------------------------------------------------------------
  Species    Type    Atomic    Atomic    Charge       Radii (Angs)     Library
                     Number     Mass       (e)     Cova   Ionic  VDW   Symbol
--------------------------------------------------------------------------------
    C913     Core        6      12.01   1.070500   0.770  0.000  1.530          
    O170     Core        8      16.00  -1.080000   0.730  0.000  1.360          
    O172     Core        8      16.00  -0.690000   0.730  0.000  1.360          
    O173     Core        8      16.00  -0.690000   0.730  0.000  1.360          
    C914     Core        6      12.01   1.070500   0.770  0.000  1.530          
    O175     Core        8      16.00  -1.080000   0.730  0.000  1.360          
    C915     Core        6      12.01   1.070500   0.770  0.000  1.530          
    C917     Core        6      12.01   1.070500   0.770  0.000  1.530          
    O177     Core        8      16.00  -1.080000   0.730  0.000  1.360          
    O176     Core        8      16.00  -1.080000   0.730  0.000  1.360          
    C916     Core        6      12.01   1.070500   0.770  0.000  1.530          
    C902     Core        6      12.01   0.005000   0.770  0.000  1.530          
    H915     Core        1       1.01   0.112500   0.370  0.000  1.080          
    C912     Core        6      12.01  -0.070250   0.770  0.000  1.530          
    H21      Core        1       1.01   0.220000   0.370  0.000  1.080          
    H22      Core        1       1.01   0.120000   0.370  0.000  1.080          
    O2       Core        8      16.00  -1.218000   0.730  0.000  1.360          
    Ti       Core       22      47.88   2.436000   0.000  0.000  2.190          
    O3       Core        8      16.00  -0.338000   0.730  0.000  1.360          
    Zn172    Core       30      65.39   2.000000   0.000  0.000  2.160          
    O171     Core        8      16.00  -2.000000   0.730  0.000  1.360          
--------------------------------------------------------------------------------


  Lattice summation method               =    Ewald          (3-D)
                                         =    Parry          (2-D)
                                         =    Saunders et al (1-D)
  Accuracy factor for lattice sums       =   12.000


  Time limit = Infinity

  Maximum range for interatomic potentials =    100000.000000 Angstroms

  General interatomic potentials :

--------------------------------------------------------------------------------
Atom  Types   Potential      Parameter       Value         Units   Cutoffs(Ang)
  1     2                                                            Min /  Max 
--------------------------------------------------------------------------------
O175 c Zn172c MM3buck       MM3buck A        184000.00    None      3Bond 12.000
                            MM3buck B        11.500000    None      
                            MM3buck C        2.5500000    None      
                            MM3buck epsilon 0.31250271E-02eV        
                            MM3buck rv       3.9595000    Ang       
--------------------------------------------------------------------------------
O176 c Zn172c MM3buck       MM3buck A        184000.00    None      3Bond 12.000
                            MM3buck B        11.500000    None      
                            MM3buck C        2.5500000    None      
                            MM3buck epsilon 0.31250271E-02eV        
                            MM3buck rv       3.9595000    Ang       
--------------------------------------------------------------------------------
O177 c Zn172c MM3buck       MM3buck A        184000.00    None      3Bond 12.000
                            MM3buck B        11.500000    None      
                            MM3buck C        2.5500000    None      
                            MM3buck epsilon 0.31250271E-02eV        
                            MM3buck rv       3.9595000    Ang       
--------------------------------------------------------------------------------
O170 c Zn172c MM3buck       MM3buck A        184000.00    None      3Bond 12.000
                            MM3buck B        11.500000    None      
                            MM3buck C        2.5500000    None      
                            MM3buck epsilon 0.31250271E-02eV        
                            MM3buck rv       3.9595000    Ang       
--------------------------------------------------------------------------------
O171 c Zn172c MM3buck       MM3buck A        184000.00    None      3Bond 12.000
                            MM3buck B        11.500000    None      
                            MM3buck C        2.5500000    None      
                            MM3buck epsilon 0.55956611E-02eV        
                            MM3buck rv       3.7332600    Ang       
--------------------------------------------------------------------------------
O3   c Ti   c MM3buck       MM3buck A        184000.00    None      3Bond 12.000
                            MM3buck B        11.500000    None      
                            MM3buck C        2.5500000    None      
                            MM3buck epsilon 0.44016176E-02eV        
                            MM3buck rv       3.0441150    Ang       
--------------------------------------------------------------------------------
O2   c Ti   c MM3buck       MM3buck A        184000.00    None      3Bond 12.000
                            MM3buck B        11.500000    None      
                            MM3buck C        2.5500000    None      
                            MM3buck epsilon 0.12586926E-01eV        
                            MM3buck rv       3.0441150    Ang       
--------------------------------------------------------------------------------
O3   c O3   c MM3buck       MM3buck A        184000.00    None      3Bond 12.000
                            MM3buck B        11.500000    None      
                            MM3buck C        2.5500000    None      
                            MM3buck epsilon 0.10031500E-02eV        
                            MM3buck rv       3.1875200    Ang       
--------------------------------------------------------------------------------
O2   c O2   c MM3buck       MM3buck A        184000.00    None      3Bond 12.000
                            MM3buck B        11.500000    None      
                            MM3buck C        2.5500000    None      
                            MM3buck epsilon 0.82031500E-02eV        
                            MM3buck rv       3.1875200    Ang       
--------------------------------------------------------------------------------
O2   c O172 c MM3buck       MM3buck A        184000.00    None      3Bond  0.000
                            MM3buck B        11.500000    None      
                            MM3buck C        2.5500000    None      
                            MM3buck epsilon 0.45812399E-02eV        
                            MM3buck rv       3.4137600    Ang       
--------------------------------------------------------------------------------
O2   c O173 c MM3buck       MM3buck A        184000.00    None      3Bond  0.000
                            MM3buck B        11.500000    None      
                            MM3buck C        2.5500000    None      
                            MM3buck epsilon 0.45812399E-02eV        
                            MM3buck rv       3.4137600    Ang       
--------------------------------------------------------------------------------
O2   c O170 c MM3buck       MM3buck A        184000.00    None      3Bond 12.000
                            MM3buck B        11.500000    None      
                            MM3buck C        2.5500000    None      
                            MM3buck epsilon 0.45812399E-02eV        
                            MM3buck rv       3.4137600    Ang       
--------------------------------------------------------------------------------
O3   c O172 c MM3buck       MM3buck A        184000.00    None      3Bond  0.000
                            MM3buck B        11.500000    None      
                            MM3buck C        2.5500000    None      
                            MM3buck epsilon 0.16020485E-02eV        
                            MM3buck rv       3.4137600    Ang       
--------------------------------------------------------------------------------
O3   c O173 c MM3buck       MM3buck A        184000.00    None      3Bond  0.000
                            MM3buck B        11.500000    None      
                            MM3buck C        2.5500000    None      
                            MM3buck epsilon 0.16020485E-02eV        
                            MM3buck rv       3.4137600    Ang       
--------------------------------------------------------------------------------
O3   c O170 c MM3buck       MM3buck A        184000.00    None      3Bond 12.000
                            MM3buck B        11.500000    None      
                            MM3buck C        2.5500000    None      
                            MM3buck epsilon 0.16020485E-02eV        
                            MM3buck rv       3.4137600    Ang       
--------------------------------------------------------------------------------
O3   c O175 c MM3buck       MM3buck A        184000.00    None      3Bond 12.000
                            MM3buck B        11.500000    None      
                            MM3buck C        2.5500000    None      
                            MM3buck epsilon 0.16020485E-02eV        
                            MM3buck rv       3.4137600    Ang       
--------------------------------------------------------------------------------
O2   c O175 c MM3buck       MM3buck A        184000.00    None      3Bond 12.000
                            MM3buck B        11.500000    None      
                            MM3buck C        2.5500000    None      
                            MM3buck epsilon 0.45812399E-02eV        
                            MM3buck rv       3.4137600    Ang       
--------------------------------------------------------------------------------
O3   c O176 c MM3buck       MM3buck A        184000.00    None      3Bond 12.000
                            MM3buck B        11.500000    None      
                            MM3buck C        2.5500000    None      
                            MM3buck epsilon 0.16020485E-02eV        
                            MM3buck rv       3.4137600    Ang       
--------------------------------------------------------------------------------
O2   c O176 c MM3buck       MM3buck A        184000.00    None      3Bond 12.000
                            MM3buck B        11.500000    None      
                            MM3buck C        2.5500000    None      
                            MM3buck epsilon 0.45812399E-02eV        
                            MM3buck rv       3.4137600    Ang       
--------------------------------------------------------------------------------
O3   c O177 c MM3buck       MM3buck A        184000.00    None      3Bond 12.000
                            MM3buck B        11.500000    None      
                            MM3buck C        2.5500000    None      
                            MM3buck epsilon 0.16020485E-02eV        
                            MM3buck rv       3.4137600    Ang       
--------------------------------------------------------------------------------
O2   c O177 c MM3buck       MM3buck A        184000.00    None      3Bond 12.000
                            MM3buck B        11.500000    None      
                            MM3buck C        2.5500000    None      
                            MM3buck epsilon 0.45812399E-02eV        
                            MM3buck rv       3.4137600    Ang       
--------------------------------------------------------------------------------
O172 c Ti   c MM3buck       MM3buck A        184000.00    None      3Bond 12.000
                            MM3buck B        11.500000    None      
                            MM3buck C        2.5500000    None      
                            MM3buck epsilon 0.70294618E-02eV        
                            MM3buck rv       3.2703550    Ang       
--------------------------------------------------------------------------------
O170 c Ti   c MM3buck       MM3buck A        184000.00    None      3Bond 12.000
                            MM3buck B        11.500000    None      
                            MM3buck C        2.5500000    None      
                            MM3buck epsilon 0.70294618E-02eV        
                            MM3buck rv       3.2703550    Ang       
--------------------------------------------------------------------------------
O173 c Ti   c MM3buck       MM3buck A        184000.00    None      3Bond 12.000
                            MM3buck B        11.500000    None      
                            MM3buck C        2.5500000    None      
                            MM3buck epsilon 0.70294618E-02eV        
                            MM3buck rv       3.2703550    Ang       
--------------------------------------------------------------------------------
O175 c Ti   c MM3buck       MM3buck A        184000.00    None      3Bond 12.000
                            MM3buck B        11.500000    None      
                            MM3buck C        2.5500000    None      
                            MM3buck epsilon 0.70294618E-02eV        
                            MM3buck rv       3.2703550    Ang       
--------------------------------------------------------------------------------
O176 c Ti   c MM3buck       MM3buck A        184000.00    None      3Bond 12.000
                            MM3buck B        11.500000    None      
                            MM3buck C        2.5500000    None      
                            MM3buck epsilon 0.70294618E-02eV        
                            MM3buck rv       3.2703550    Ang       
--------------------------------------------------------------------------------
O177 c Ti   c MM3buck       MM3buck A        184000.00    None      3Bond 12.000
                            MM3buck B        11.500000    None      
                            MM3buck C        2.5500000    None      
                            MM3buck epsilon 0.70294618E-02eV        
                            MM3buck rv       3.2703550    Ang       
--------------------------------------------------------------------------------
Ti   c Ti   c MM3buck       MM3buck A        184000.00    None      3Bond 12.000
                            MM3buck B        11.500000    None      
                            MM3buck C        2.5500000    None      
                            MM3buck epsilon 0.19313400E-01eV        
                            MM3buck rv       2.9007100    Ang       
--------------------------------------------------------------------------------
Ti3  c Ti3  c MM3buck       MM3buck A        184000.00    None      3Bond 12.000
                            MM3buck B        11.500000    None      
                            MM3buck C        2.5500000    None      
                            MM3buck epsilon 0.19313400E-01eV        
                            MM3buck rv       2.9007100    Ang       
--------------------------------------------------------------------------------
C916 c O3   c Lenn/es       Lennard epsilon  0.0000000    eV        3Bond 12.500
                            Lennard sigma/m  0.0000000    Ang       
                            Exponent m        12          None
                            Exponent n         6          None
--------------------------------------------------------------------------------
C917 c O3   c Lenn/es       Lennard epsilon  0.0000000    eV        3Bond 12.500
                            Lennard sigma/m  0.0000000    Ang       
                            Exponent m        12          None
                            Exponent n         6          None
--------------------------------------------------------------------------------
O3   c O175 c Lenn/es       Lennard epsilon  0.0000000    eV        3Bond 12.500
                            Lennard sigma/m  0.0000000    Ang       
                            Exponent m        12          None
                            Exponent n         6          None
--------------------------------------------------------------------------------
C915 c O3   c Lenn/es       Lennard epsilon  0.0000000    eV        3Bond 12.500
                            Lennard sigma/m  0.0000000    Ang       
                            Exponent m        12          None
                            Exponent n         6          None
--------------------------------------------------------------------------------
C902 c O3   c Lenn/es       Lennard epsilon  0.0000000    eV        3Bond 12.500
                            Lennard sigma/m  0.0000000    Ang       
                            Exponent m        12          None
                            Exponent n         6          None
--------------------------------------------------------------------------------
C914 c O3   c Lenn/es       Lennard epsilon  0.0000000    eV        3Bond 12.500
                            Lennard sigma/m  0.0000000    Ang       
                            Exponent m        12          None
                            Exponent n         6          None
--------------------------------------------------------------------------------
C913 c O3   c Lenn/es       Lennard epsilon  0.0000000    eV        3Bond 12.500
                            Lennard sigma/m  0.0000000    Ang       
                            Exponent m        12          None
                            Exponent n         6          None
--------------------------------------------------------------------------------
C912 c O3   c Lenn/es       Lennard epsilon  0.0000000    eV        3Bond 12.500
                            Lennard sigma/m  0.0000000    Ang       
                            Exponent m        12          None
                            Exponent n         6          None
--------------------------------------------------------------------------------
H915 c O3   c Lenn/es       Lennard epsilon  0.0000000    eV        3Bond 12.500
                            Lennard sigma/m  0.0000000    Ang       
                            Exponent m        12          None
                            Exponent n         6          None
--------------------------------------------------------------------------------
H21  c O3   c Lenn/es       Lennard epsilon  0.0000000    eV        3Bond 12.500
                            Lennard sigma/m  0.0000000    Ang       
                            Exponent m        12          None
                            Exponent n         6          None
--------------------------------------------------------------------------------
C916 c O2   c Lenn/es       Lennard epsilon  0.0000000    eV        3Bond 12.500
                            Lennard sigma/m  0.0000000    Ang       
                            Exponent m        12          None
                            Exponent n         6          None
--------------------------------------------------------------------------------
C917 c O2   c Lenn/es       Lennard epsilon  0.0000000    eV        3Bond 12.500
                            Lennard sigma/m  0.0000000    Ang       
                            Exponent m        12          None
                            Exponent n         6          None
--------------------------------------------------------------------------------
C915 c O2   c Lenn/es       Lennard epsilon  0.0000000    eV        3Bond 12.500
                            Lennard sigma/m  0.0000000    Ang       
                            Exponent m        12          None
                            Exponent n         6          None
--------------------------------------------------------------------------------
C902 c O2   c Lenn/es       Lennard epsilon  0.0000000    eV        3Bond 12.500
                            Lennard sigma/m  0.0000000    Ang       
                            Exponent m        12          None
                            Exponent n         6          None
--------------------------------------------------------------------------------
C914 c O2   c Lenn/es       Lennard epsilon  0.0000000    eV        3Bond 12.500
                            Lennard sigma/m  0.0000000    Ang       
                            Exponent m        12          None
                            Exponent n         6          None
--------------------------------------------------------------------------------
C913 c O2   c Lenn/es       Lennard epsilon  0.0000000    eV        3Bond 12.500
                            Lennard sigma/m  0.0000000    Ang       
                            Exponent m        12          None
                            Exponent n         6          None
--------------------------------------------------------------------------------
C912 c O2   c Lenn/es       Lennard epsilon  0.0000000    eV        3Bond 12.500
                            Lennard sigma/m  0.0000000    Ang       
                            Exponent m        12          None
                            Exponent n         6          None
--------------------------------------------------------------------------------
H915 c O2   c Lenn/es       Lennard epsilon  0.0000000    eV        3Bond 12.500
                            Lennard sigma/m  0.0000000    Ang       
                            Exponent m        12          None
                            Exponent n         6          None
--------------------------------------------------------------------------------
H21  c O2   c Lenn/es       Lennard epsilon  0.0000000    eV        3Bond 12.500
                            Lennard sigma/m  0.0000000    Ang       
                            Exponent m        12          None
                            Exponent n         6          None
--------------------------------------------------------------------------------
H22  c O176 c Lenn/es       Lennard epsilon 0.32179843E-02eV        3Bond 12.500
                            Lennard sigma/m 0.96225000    Ang       
                            Exponent m        12          None
                            Exponent n         6          None
--------------------------------------------------------------------------------
H22  c O177 c Lenn/es       Lennard epsilon 0.32179843E-02eV        3Bond 12.500
                            Lennard sigma/m 0.96225000    Ang       
                            Exponent m        12          None
                            Exponent n         6          None
--------------------------------------------------------------------------------
H22  c O175 c Lenn/es       Lennard epsilon 0.32179843E-02eV        3Bond 12.500
                            Lennard sigma/m 0.96225000    Ang       
                            Exponent m        12          None
                            Exponent n         6          None
--------------------------------------------------------------------------------
H22  c C916 c Lenn/es       Lennard epsilon 0.24577764E-02eV        3Bond 12.500
                            Lennard sigma/m  1.1122500    Ang       
                            Exponent m        12          None
                            Exponent n         6          None
--------------------------------------------------------------------------------
H22  c C917 c Lenn/es       Lennard epsilon 0.24577764E-02eV        3Bond 12.500
                            Lennard sigma/m  1.1122500    Ang       
                            Exponent m        12          None
                            Exponent n         6          None
--------------------------------------------------------------------------------
H22  c C915 c Lenn/es       Lennard epsilon 0.24577764E-02eV        3Bond 12.500
                            Lennard sigma/m  1.1122500    Ang       
                            Exponent m        12          None
                            Exponent n         6          None
--------------------------------------------------------------------------------
O176 c O176 c Lenn/es       Lennard epsilon 0.52037300E-02eV        3Bond 12.500
                            Lennard sigma/m  1.7000000    Ang       
                            Exponent m        12          None
                            Exponent n         6          None
--------------------------------------------------------------------------------
O176 c O177 c Lenn/es       Lennard epsilon 0.52037300E-02eV        3Bond 12.500
                            Lennard sigma/m  1.7000000    Ang       
                            Exponent m        12          None
                            Exponent n         6          None
--------------------------------------------------------------------------------
C916 c O176 c Lenn/es       Lennard epsilon 0.39744150E-02eV        3Bond 12.500
                            Lennard sigma/m  1.8500000    Ang       
                            Exponent m        12          None
                            Exponent n         6          None
--------------------------------------------------------------------------------
C917 c O176 c Lenn/es       Lennard epsilon 0.39744150E-02eV        3Bond 12.500
                            Lennard sigma/m  1.8500000    Ang       
                            Exponent m        12          None
                            Exponent n         6          None
--------------------------------------------------------------------------------
O175 c O176 c Lenn/es       Lennard epsilon 0.52037300E-02eV        3Bond 12.500
                            Lennard sigma/m  1.7000000    Ang       
                            Exponent m        12          None
                            Exponent n         6          None
--------------------------------------------------------------------------------
C915 c O176 c Lenn/es       Lennard epsilon 0.39744150E-02eV        3Bond 12.500
                            Lennard sigma/m  1.8500000    Ang       
                            Exponent m        12          None
                            Exponent n         6          None
--------------------------------------------------------------------------------
C902 c O176 c Lenn/es       Lennard epsilon 0.39744150E-02eV        3Bond 12.500
                            Lennard sigma/m  1.8462000    Ang       
                            Exponent m        12          None
                            Exponent n         6          None
--------------------------------------------------------------------------------
C914 c O176 c Lenn/es       Lennard epsilon 0.39744150E-02eV        3Bond 12.500
                            Lennard sigma/m  1.8500000    Ang       
                            Exponent m        12          None
                            Exponent n         6          None
--------------------------------------------------------------------------------
C913 c O176 c Lenn/es       Lennard epsilon 0.39744150E-02eV        3Bond 12.500
                            Lennard sigma/m  1.8500000    Ang       
                            Exponent m        12          None
                            Exponent n         6          None
--------------------------------------------------------------------------------
C912 c O176 c Lenn/es       Lennard epsilon 0.39744150E-02eV        3Bond 12.500
                            Lennard sigma/m  1.8462000    Ang       
                            Exponent m        12          None
                            Exponent n         6          None
--------------------------------------------------------------------------------
H915 c O176 c Lenn/es       Lennard epsilon 0.26018625E-02eV        3Bond 12.500
                            Lennard sigma/m  1.5291000    Ang       
                            Exponent m        12          None
                            Exponent n         6          None
--------------------------------------------------------------------------------
O172 c O176 c Lenn/es       Lennard epsilon 0.52037300E-02eV        3Bond 12.500
                            Lennard sigma/m  1.7000000    Ang       
                            Exponent m        12          None
                            Exponent n         6          None
--------------------------------------------------------------------------------
O170 c O176 c Lenn/es       Lennard epsilon 0.52037300E-02eV        3Bond 12.500
                            Lennard sigma/m  1.7000000    Ang       
                            Exponent m        12          None
                            Exponent n         6          None
--------------------------------------------------------------------------------
O173 c O176 c Lenn/es       Lennard epsilon 0.52037300E-02eV        3Bond 12.500
                            Lennard sigma/m  1.7000000    Ang       
                            Exponent m        12          None
                            Exponent n         6          None
--------------------------------------------------------------------------------
H21  c O176 c Lenn/es       Lennard epsilon 0.32179843E-02eV        3Bond 12.500
                            Lennard sigma/m 0.96225000    Ang       
                            Exponent m        12          None
                            Exponent n         6          None
--------------------------------------------------------------------------------
O177 c O177 c Lenn/es       Lennard epsilon 0.52037300E-02eV        3Bond 12.500
                            Lennard sigma/m  1.7000000    Ang       
                            Exponent m        12          None
                            Exponent n         6          None
--------------------------------------------------------------------------------
C916 c O177 c Lenn/es       Lennard epsilon 0.39744150E-02eV        3Bond 12.500
                            Lennard sigma/m  1.8500000    Ang       
                            Exponent m        12          None
                            Exponent n         6          None
--------------------------------------------------------------------------------
C917 c O177 c Lenn/es       Lennard epsilon 0.39744150E-02eV        3Bond 12.500
                            Lennard sigma/m  1.8500000    Ang       
                            Exponent m        12          None
                            Exponent n         6          None
--------------------------------------------------------------------------------
O175 c O177 c Lenn/es       Lennard epsilon 0.52037300E-02eV        3Bond 12.500
                            Lennard sigma/m  1.7000000    Ang       
                            Exponent m        12          None
                            Exponent n         6          None
--------------------------------------------------------------------------------
C915 c O177 c Lenn/es       Lennard epsilon 0.39744150E-02eV        3Bond 12.500
                            Lennard sigma/m  1.8500000    Ang       
                            Exponent m        12          None
                            Exponent n         6          None
--------------------------------------------------------------------------------
C902 c O177 c Lenn/es       Lennard epsilon 0.39744150E-02eV        3Bond 12.500
                            Lennard sigma/m  1.8462000    Ang       
                            Exponent m        12          None
                            Exponent n         6          None
--------------------------------------------------------------------------------
C914 c O177 c Lenn/es       Lennard epsilon 0.39744150E-02eV        3Bond 12.500
                            Lennard sigma/m  1.8500000    Ang       
                            Exponent m        12          None
                            Exponent n         6          None
--------------------------------------------------------------------------------
C913 c O177 c Lenn/es       Lennard epsilon 0.39744150E-02eV        3Bond 12.500
                            Lennard sigma/m  1.8500000    Ang       
                            Exponent m        12          None
                            Exponent n         6          None
--------------------------------------------------------------------------------
C912 c O177 c Lenn/es       Lennard epsilon 0.39744150E-02eV        3Bond 12.500
                            Lennard sigma/m  1.8462000    Ang       
                            Exponent m        12          None
[...]
   287 O2    c     19.467487          -0.017312    1.419706    0.125188
   288 O2    c     19.440632          -0.008458   -1.373263    0.098749
   289 O2    c     19.467486           0.017312    1.419707    0.125187
   290 O2    c     19.440632           0.008458   -1.373264    0.098749
   291 O2    c     19.443968           0.026582    1.424236    0.100848
   292 O2    c     19.422438           0.016280   -1.385417    0.095530
   293 O2    c     19.422110           0.013184    1.431657    0.086114
   294 O2    c     19.404688           0.008486   -1.396801    0.092698
   295 O2    c     19.422110          -0.013185    1.431657    0.086114
   296 O2    c     19.404688          -0.008486   -1.396801    0.092698
   297 O2    c     19.414622          -0.015317    1.423117    0.098518
   298 O2    c     19.414622          -0.015317   -1.423117    0.098518
   299 O2    c     19.430235          -0.008122    1.427211    0.106132
   300 O2    c     19.430235          -0.008122   -1.427211    0.106132
   301 O2    c     19.430235           0.008122    1.427211    0.106132
   302 O2    c     19.430235           0.008122   -1.427211    0.106132
   303 O2    c     19.414622           0.015317    1.423117    0.098518
   304 O2    c     19.414622           0.015317   -1.423117    0.098518
   305 O2    c     19.399892           0.007163    1.418360    0.090879
   306 O2    c     19.399892           0.007163   -1.418360    0.090879
   307 O2    c     20.400127          -0.000000   -0.000000    1.096437
   308 O2    c     20.427910           0.007718    0.012632    1.074836
   309 O2    c     20.478311           0.008194    0.012525    1.023062
   310 O2    c     20.506641          -0.000001    0.013613    0.992505
   311 O2    c     20.478309          -0.008196    0.012526    1.023064
   312 O2    c     20.427907          -0.007717    0.012632    1.074838
   313 O2    c     20.409543           0.000002    0.016134    1.094437
   314 O2    c     20.427910           0.007718   -0.012632    1.074836
   315 O2    c     20.478311           0.008194   -0.012525    1.023062
   316 O2    c     20.506641          -0.000001   -0.013613    0.992505
   317 O2    c     20.478309          -0.008196   -0.012526    1.023064
   318 O2    c     20.427907          -0.007717   -0.012632    1.074838
   319 O2    c     20.409543           0.000002   -0.016134    1.094437
   320 O2    c     20.410054          -0.005843   -0.000000    1.092072
   321 O2    c     20.432667          -0.004870   -0.000000    1.077701
   322 O2    c     20.447254           0.000000   -0.000000    1.066132
   323 O2    c     20.432666           0.004870   -0.000000    1.077701
   324 O2    c     20.410054           0.005843   -0.000000    1.092072
   325 O2    c     19.768547          -0.000001    0.000988   -1.725923
   326 O2    c     19.787196          -0.033316    0.008907   -1.739794
   327 O2    c     19.822855          -0.035647    0.021706   -1.764415
   328 O2    c     19.840298           0.000000    0.028802   -1.775732
   329 O2    c     19.822855           0.035647    0.021706   -1.764415
   330 O2    c     19.787196           0.033316    0.008906   -1.739795
   331 O2    c     19.768547          -0.000001   -0.000988   -1.725923
   332 O2    c     19.855606          -0.160966   -0.000000   -1.802479
   333 O2    c     19.948880          -0.194467   -0.000000   -1.806433
   334 O2    c     20.060674           0.000017   -0.000000   -1.907904
   335 O2    c     19.948876           0.194469   -0.000000   -1.806442
   336 O2    c     19.855601           0.160950   -0.000000   -1.802479
   337 O2    c     19.798794          -0.000004   -0.000000   -1.773479
   338 O2    c     19.787196          -0.033316   -0.008907   -1.739794
   339 O2    c     19.822855          -0.035647   -0.021706   -1.764415
   340 O2    c     19.840298           0.000000   -0.028802   -1.775732
   341 O2    c     19.822855           0.035647   -0.021706   -1.764415
   342 O2    c     19.787196           0.033316   -0.008906   -1.739795
   343 O2    c     19.609917          -0.012634    1.781256    0.045028
   344 O2    c     19.609917          -0.012634   -1.781256    0.045028
   345 O2    c     19.700888          -0.054033    1.745968    0.065020
   346 O2    c     19.683650          -0.054608   -1.862512    0.076923
   347 O2    c     19.768273          -0.027831    1.698004    0.095872
   348 O2    c     19.731323          -0.031346   -1.892582    0.114642
   349 O2    c     19.768271           0.027830    1.698006    0.095873
   350 O2    c     19.731323           0.031346   -1.892581    0.114642
   351 O2    c     19.700886           0.054033    1.745970    0.065020
   352 O2    c     19.683649           0.054608   -1.862512    0.076921
   353 O2    c     19.645706           0.018702    1.783836    0.049733
   354 O2    c     19.637622           0.018405   -1.830286    0.039220
   355 O2    c     19.645707          -0.018701    1.783837    0.049733
   356 O2    c     19.637622          -0.018406   -1.830285    0.039220
   357 O2    c     19.683650          -0.054608    1.862512    0.076923
   358 O2    c     19.700888          -0.054033   -1.745968    0.065020
   359 O2    c     19.731323          -0.031346    1.892582    0.114642
   360 O2    c     19.768273          -0.027831   -1.698004    0.095872
   361 O2    c     19.731323           0.031346    1.892581    0.114642
   362 O2    c     19.768271           0.027830   -1.698006    0.095873
   363 O2    c     19.683649           0.054608    1.862512    0.076921
   364 O2    c     19.700886           0.054033   -1.745970    0.065020
   365 O2    c     19.637622           0.018405    1.830286    0.039220
   366 O2    c     19.645706           0.018702   -1.783836    0.049733
   367 O2    c     19.637622          -0.018406    1.830285    0.039220
   368 O2    c     19.645707          -0.018701   -1.783837    0.049733
   369 O2    c     19.635660          -0.026103    1.776993    0.049223
   370 O2    c     19.635660          -0.026103   -1.776993    0.049223
   371 O2    c     19.661918          -0.013401    1.771043    0.057671
   372 O2    c     19.661918          -0.013401   -1.771043    0.057671
   373 O2    c     19.661918           0.013401    1.771043    0.057672
   374 O2    c     19.661918           0.013401   -1.771043    0.057672
   375 O2    c     19.635660           0.026103    1.776993    0.049223
   376 O2    c     19.635660           0.026103   -1.776993    0.049223
   377 O2    c     19.609917           0.012634    1.781256    0.045028
   378 O2    c     19.609917           0.012634   -1.781256    0.045028
   379 O2    c     19.818908           0.000001   -0.019110    1.445149
   380 O2    c     19.842529          -0.026366    0.022072    1.425089
   381 O2    c     19.889265          -0.024946    0.025834    1.396216
   382 O2    c     19.921266          -0.000000    0.033020    1.366761
   383 O2    c     19.889265           0.024946    0.025834    1.396215
   384 O2    c     19.842528           0.026366    0.022072    1.425089
   385 O2    c     19.818908           0.000001    0.019110    1.445149
   386 O2    c     19.818735           0.055149   -0.000000    1.501977
   387 O2    c     20.249575           0.049755   -0.000000    0.847002
   388 O2    c     20.226660          -0.000011   -0.000000    0.791142
   389 O2    c     20.249532          -0.049753   -0.000000    0.847065
   390 O2    c     19.818736          -0.055140   -0.000000    1.501972
   391 O2    c     19.833454           0.000002   -0.000000    1.461757
   392 O2    c     19.842529          -0.026366   -0.022072    1.425089
   393 O2    c     19.889265          -0.024946   -0.025834    1.396216
   394 O2    c     19.921266          -0.000000   -0.033020    1.366761
   395 O2    c     19.889265           0.024946   -0.025834    1.396215
   396 O2    c     19.842528           0.026366   -0.022072    1.425089
   397 O2    c     20.558129          -0.000000   -0.000000   -1.335683
   398 O2    c     20.647941          -0.082672   -0.016012   -1.406662
   399 O2    c     20.815677          -0.185905    0.113242   -1.539740
   400 O2    c     20.862760           0.000001    0.185482   -1.531191
   401 O2    c     20.815676           0.185912    0.113240   -1.539746
   402 O2    c     20.647938           0.082667   -0.016009   -1.406663
   403 O2    c     20.600185          -0.000002    0.008248   -1.379959
   404 O2    c     20.647941          -0.082672    0.016012   -1.406662
   405 O2    c     20.815677          -0.185905   -0.113242   -1.539740
   406 O2    c     20.862760           0.000001   -0.185482   -1.531191
   407 O2    c     20.815676           0.185912   -0.113240   -1.539746
   408 O2    c     20.647938           0.082667    0.016009   -1.406663
   409 O2    c     20.600185          -0.000002   -0.008248   -1.379959
   410 O2    c     20.580086          -0.034941   -0.000000   -1.349906
   411 O2    c     20.637591          -0.053871   -0.000000   -1.388788
   412 O2    c     20.664443           0.000000   -0.000000   -1.400636
   413 O2    c     20.637591           0.053871   -0.000000   -1.388787
   414 O2    c     20.580086           0.034941   -0.000000   -1.349907
   415 O2    c     19.615323          -0.020426    1.446254   -0.016029
   416 O2    c     19.615323          -0.020426   -1.446254   -0.016029
   417 O2    c     19.716997          -0.071085    1.257395    0.028068
   418 O2    c     19.880414          -0.220904   -1.563551   -0.019085
   419 O2    c     19.798005          -0.036023    1.183799    0.030395
   420 O2    c     20.120683          -0.312584   -1.764215    0.349174
   421 O2    c     19.798005           0.036022    1.183800    0.030395
   422 O2    c     20.120673           0.312587   -1.764218    0.349179
   423 O2    c     19.716995           0.071085    1.257395    0.028069
   424 O2    c     19.880412           0.220901   -1.563550   -0.019082
   425 O2    c     19.641202           0.034178    1.349879    0.009770
   426 O2    c     19.736344           0.065137   -1.516214   -0.004376
   427 O2    c     19.641202          -0.034177    1.349880    0.009771
   428 O2    c     19.736345          -0.065138   -1.516215   -0.004376
   429 O2    c     19.880414          -0.220904    1.563551   -0.019085
   430 O2    c     19.716997          -0.071085   -1.257395    0.028068
   431 O2    c     20.120683          -0.312584    1.764215    0.349174
   432 O2    c     19.798006          -0.036023   -1.183799    0.030395
   433 O2    c     20.120673           0.312587    1.764218    0.349179
   434 O2    c     19.798005           0.036022   -1.183800    0.030395
   435 O2    c     19.880412           0.220901    1.563550   -0.019082
   436 O2    c     19.716995           0.071085   -1.257395    0.028069
   437 O2    c     19.736344           0.065137    1.516214   -0.004376
   438 O2    c     19.641202           0.034178   -1.349879    0.009770
   439 O2    c     19.736345          -0.065138    1.516215   -0.004376
   440 O2    c     19.641202          -0.034177   -1.349880    0.009771
   441 O2    c     19.684847          -0.066880    1.473493   -0.005164
   442 O2    c     19.684847          -0.066880   -1.473493   -0.005164
   443 O2    c     19.752130          -0.025140    1.499555    0.015063
   444 O2    c     19.752130          -0.025140   -1.499555    0.015063
   445 O2    c     19.752131           0.025140    1.499554    0.015063
   446 O2    c     19.752131           0.025140   -1.499554    0.015063
   447 O2    c     19.684847           0.066881    1.473494   -0.005165
   448 O2    c     19.684847           0.066881   -1.473494   -0.005165
   449 O2    c     19.615322           0.020425    1.446254   -0.016030
   450 O2    c     19.615322           0.020425   -1.446254   -0.016030
   451 O2    c     20.736492           0.000000   -0.000000    0.336001
   452 O2    c     20.863304          -0.073734    0.080918    0.266801
   453 O2    c     21.019116          -0.116908    0.177882    0.094663
   454 O2    c     21.287196          -0.000002    0.185094   -0.085108
   455 O2    c     21.019111           0.116904    0.177890    0.094658
   456 O2    c     20.863303           0.073738    0.080916    0.266802
   457 O2    c     20.797602           0.000001    0.036452    0.320379
   458 O2    c     20.863304          -0.073734   -0.080918    0.266801
   459 O2    c     21.019116          -0.116908   -0.177882    0.094663
   460 O2    c     21.287196          -0.000002   -0.185094   -0.085108
   461 O2    c     21.019111           0.116904   -0.177890    0.094658
   462 O2    c     20.863303           0.073738   -0.080916    0.266802
   463 O2    c     20.797602           0.000001   -0.036452    0.320379
   464 O2    c     20.767194          -0.041490   -0.000000    0.320903
   465 O2    c     20.828748          -0.041938   -0.000000    0.267576
   466 O2    c     20.886796          -0.000000   -0.000000    0.216405
   467 O2    c     20.828748           0.041937   -0.000000    0.267576
   468 O2    c     20.767193           0.041490   -0.000000    0.320903
   469 O2    c     19.008172          -0.000001    0.004672   -0.046578
   470 O2    c     19.048708          -0.080835    0.004679   -0.059947
   471 O2    c     19.149753          -0.112406    0.028087   -0.118801
   472 O2    c     19.202412          -0.000002    0.085200   -0.117182
   473 O2    c     19.149753           0.112408    0.028084   -0.118802
   474 O2    c     19.048708           0.080836    0.004679   -0.059947
   475 O2    c     19.008172          -0.000001   -0.004672   -0.046578
   476 O2    c     19.193911          -0.107499   -0.000000   -0.326731
   477 O2    c     20.331485          -1.957243    0.000000   -1.091626
   478 O2    c     21.547237           0.000232   -0.000000   -2.936393
   479 O2    c     20.331407           1.957057    0.000000   -1.091624
   480 O2    c     19.193910           0.107499   -0.000000   -0.326727
   481 O2    c     19.087613           0.000002   -0.000000   -0.165007
   482 O2    c     19.048708          -0.080835   -0.004679   -0.059947
   483 O2    c     19.149753          -0.112406   -0.028087   -0.118801
   484 O2    c     19.202412          -0.000002   -0.085200   -0.117182
   485 O2    c     19.149753           0.112408   -0.028084   -0.118802
   486 O2    c     19.048708           0.080836   -0.004679   -0.059947
   487 O2    c     20.086339          -0.032207    3.356072    0.727854
   488 O2    c     20.478697          -0.339994    3.040065    0.786004
   489 O2    c     20.811711          -0.147674    2.002042    0.964717
   490 O2    c     20.811737           0.147664    2.001988    0.964725
   491 O2    c     20.478701           0.340001    3.040064    0.786002
   492 O2    c     20.221629           0.095400    3.274905    0.737783
   493 O2    c     20.221629          -0.095404    3.274904    0.737785
   494 O2    c     20.334678          -0.102864    3.641723    0.721592
   495 O2    c     20.772903          -0.245470    4.065496    0.905714
   496 O2    c     20.772905           0.245477    4.065504    0.905698
   497 O2    c     20.334673           0.102859    3.641721    0.721585
   498 O2    c     20.160109           0.042807    3.490947    0.703064
   499 O2    c     20.160110          -0.042807    3.490948    0.703064
   500 O2    c     20.164972          -0.077172    3.344395    0.739505
   501 O2    c     20.312405          -0.074980    3.239151    0.774223
   502 O2    c     20.312404           0.074980    3.239152    0.774224
   503 O2    c     20.164970           0.077171    3.344398    0.739506
   504 O2    c     20.086339           0.032207    3.356072    0.727854
   505 O2    c     20.086339          -0.032207   -3.356072    0.727854
   506 O2    c     20.334678          -0.102864   -3.641723    0.721592
   507 O2    c     20.772902          -0.245470   -4.065496    0.905714
   508 O2    c     20.772905           0.245477   -4.065504    0.905698
   509 O2    c     20.334673           0.102859   -3.641721    0.721585
   510 O2    c     20.160109           0.042807   -3.490947    0.703064
   511 O2    c     20.160110          -0.042807   -3.490948    0.703064
   512 O2    c     20.478697          -0.339994   -3.040065    0.786004
   513 O2    c     20.811711          -0.147674   -2.002042    0.964717
   514 O2    c     20.811737           0.147664   -2.001988    0.964725
   515 O2    c     20.478701           0.340001   -3.040064    0.786002
   516 O2    c     20.221629           0.095400   -3.274905    0.737783
   517 O2    c     20.221629          -0.095404   -3.274904    0.737785
   518 O2    c     20.164972          -0.077172   -3.344395    0.739505
   519 O2    c     20.312405          -0.074980   -3.239151    0.774223
   520 O2    c     20.312404           0.074980   -3.239152    0.774224
   521 O2    c     20.164970           0.077172   -3.344398    0.739506
   522 O2    c     20.086339           0.032207   -3.356072    0.727854
   523 O2    c     17.473101           0.000000   -0.062710    7.877116
   524 O2    c     17.521081          -0.058111    0.103739    7.877557
   525 O2    c     17.637394          -0.096027    0.182682    7.878164
   526 O2    c     17.734123           0.000002    0.473361    7.810968
   527 O2    c     17.637394           0.096025    0.182685    7.878165
   528 O2    c     17.521081           0.058110    0.103740    7.877556
   529 O2    c     17.473101           0.000000    0.062710    7.877116
   530 O2    c     17.851023          -0.443355   -0.000000    7.951213
   531 O2    c     18.544215          -0.361072   -0.000000    8.063842
   532 O3    c     10.425584          -0.000029   -0.000000    3.604245
   533 O2    c     18.544290           0.361239   -0.000000    8.063892
   534 O2    c     17.851019           0.443351   -0.000000    7.951215
   535 O2    c     17.630256          -0.000001    0.000000    7.936810
   536 O2    c     17.521081          -0.058111   -0.103739    7.877557
   537 O2    c     17.637394          -0.096027   -0.182682    7.878164
   538 O2    c     17.734123           0.000002   -0.473362    7.810968
   539 O2    c     17.637394           0.096025   -0.182685    7.878165
   540 O2    c     17.521081           0.058110   -0.103740    7.877556
   541 H22   c     -0.685711           0.000192    0.000001   -1.999014
-------------------------------------------------------------------------------

  Total time to end of lattice properties =      64.3790 s


  Peak dynamic memory used =      55.66 MB 


  Timing analysis for GULP :

--------------------------------------------------------------------------------
  Task / Subroutine                                          Time (Seconds)
--------------------------------------------------------------------------------
  Calculation of reciprocal space energy and derivatives         27.8193
  Calculation of real space energy and derivatives               26.0572
  Calculation of three-body energy and derivatives                0.0034
  Calculation of four-body energy and derivatives                 0.0009
  Calculation of molecules and connectivity                       0.0418
  Calculation of phonons                                          7.4931
  Calculation of scattering                                       0.0000
  Calculation of matrix inversion                                 5.5898
  Symmetry generation of equivalent positions                     0.0022
  Global summation overhead                                       0.0001
--------------------------------------------------------------------------------
  Total CPU time                                                 64.3790
--------------------------------------------------------------------------------


  Dump file written as fit1.res                                                


  Job Finished at 19:52.27 24th May        2016                               

