********************************************************************************
*                       GENERAL UTILITY LATTICE PROGRAM                        *
*                                 Julian Gale                                  *
*                      Nanochemistry Research Institute                        *
*                           Department of Chemistry                            *
*                    Curtin University, Western Australia                      *
********************************************************************************
* Version = 4.4.0 * Last modified = 31st March 2015                            *
********************************************************************************
*  optimise     - perform optimisation run                                     *
*  conv         - constant volume calculation                                  *
*  property     - calculate properties for final geometry                      *
*  phonon       - calculate phonons for final geometry                         *
*  potential    - calculate electrostatic site potentials                      *
*  molmec       - molecule option activated, Coulomb subtract 1-2/1-3 terms    *
*  fix_molecule - fix atoms of molecule as at the start of the run             *
*  compare      - compare initial and final structures                         *
*  rfo          - optimisation step to be determined by RFO method             *
********************************************************************************

  Job Started  at 20:28.35 19th May        2016                               

  Number of CPUs =     1


  Total number of configurations input =   1

********************************************************************************
*  Input for Configuration =   1                                               *
********************************************************************************

  Formula = Ti180O446H84C160Zn24                                        

  Number of irreducible atoms/shells =     894


  Total number atoms/shells =     894

  Dimensionality = 3               :  Bulk   



  Cartesian lattice vectors (Angstroms) :

       17.724000    0.000000    0.000000
        0.000000   19.461000    0.000000
        0.000000    0.000000  114.868482

  Cell parameters (Angstroms/Degrees):

  a =      17.7240    alpha =  90.0000
  b =      19.4610    beta  =  90.0000
  c =     114.8685    gamma =  90.0000

  Initial cell volume =       39621.213782 Angs**3

  Temperature of configuration =  0.000     K 

  Pressure of configuration =         0.000 GPa 

  Fractional coordinates of asymmetric unit :

--------------------------------------------------------------------------------
   No.  Atomic       x           y          z         Charge      Occupancy
        Label      (Frac)      (Frac)     (Frac)        (e)         (Frac)  
--------------------------------------------------------------------------------
      1 Ti    c    0.320000    0.733333    0.339268     2.43600    1.000000    
      2 Ti    c    0.158112 *  0.399656 *  0.341419 *   2.43600    1.000000    
      3 Ti    c    0.991417 *  0.399442 *  0.341469 *   2.43600    1.000000    
      4 Ti    c    0.826315 *  0.399038 *  0.340083 *   2.43600    1.000000    
      5 Ti    c    0.657219 *  0.399253 *  0.340012 *   2.43600    1.000000    
      6 Ti    c    0.492292 *  0.398913 *  0.341429 *   2.43600    1.000000    
      7 Ti    c    0.324891 *  0.399318 *  0.341380 *   2.43600    1.000000    
      8 Ti    c    0.158442 *  0.065564 *  0.340906 *   2.43600    1.000000    
      9 Ti    c    0.992146 *  0.065583 *  0.341413 *   2.43600    1.000000    
     10 Ti    c    0.825492 *  0.066936 *  0.341438 *   2.43600    1.000000    
     11 Ti    c    0.658611 *  0.067115 *  0.341343 *   2.43600    1.000000    
     12 Ti    c    0.491744 *  0.066712 *  0.341284 *   2.43600    1.000000    
     13 Ti    c    0.324814 *  0.065798 *  0.341264 *   2.43600    1.000000    
     14 Ti    c    0.157080 *  0.733002 *  0.341019 *   2.43600    1.000000    
     15 Ti    c    0.991579 *  0.732835 *  0.341442 *   2.43600    1.000000    
     16 Ti    c    0.825631 *  0.733208 *  0.341409 *   2.43600    1.000000    
     17 Ti    c    0.659256 *  0.733475 *  0.341412 *   2.43600    1.000000    
     18 Ti    c    0.496122 *  0.732796 *  0.339289 *   2.43600    1.000000    
     19 Ti    c    0.074941 *  0.232109 *  0.339153 *   2.43600    1.000000    
     20 Ti    c    0.908184 *  0.232102 *  0.339004 *   2.43600    1.000000    
     21 Ti    c    0.741573 *  0.234060 *  0.340686 *   2.43600    1.000000    
     22 Ti    c    0.909673 *  0.899478 *  0.339315 *   2.43600    1.000000    
     23 Ti    c    0.575112 *  0.900030 *  0.339173 *   2.43600    1.000000    
     24 Ti    c    0.407616 *  0.901410 *  0.338930 *   2.43600    1.000000    
     25 Ti    c    0.908054 *  0.565493 *  0.339121 *   2.43600    1.000000    
     26 Ti    c    0.575329 *  0.565407 *  0.339053 *   2.43600    1.000000    
     27 Ti    c    0.408544 *  0.563418 *  0.338805 *   2.43600    1.000000    
     28 Ti    c    0.242104 *  0.232130 *  0.339190 *   2.43600    1.000000    
     29 Ti    c    0.575126 *  0.232160 *  0.339466 *   2.43600    1.000000    
     30 Ti    c    0.409045 *  0.232716 *  0.339157 *   2.43600    1.000000    
     31 Ti    c    0.240950 *  0.899813 *  0.340566 *   2.43600    1.000000    
     32 Ti    c    0.076471 *  0.899241 *  0.340973 *   2.43600    1.000000    
     33 Ti    c    0.742381 *  0.900899 *  0.339226 *   2.43600    1.000000    
     34 Ti    c    0.241760 *  0.567110 *  0.339115 *   2.43600    1.000000    
     35 Ti    c    0.074795 *  0.567016 *  0.339150 *   2.43600    1.000000    
     36 Ti    c    0.741632 *  0.568890 *  0.338792 *   2.43600    1.000000    
     37 Ti    c    0.324976 *  0.565985 *  0.311784 *   2.43600    1.000000    
     38 Ti    c    0.158506 *  0.232776 *  0.312066 *   2.43600    1.000000    
     39 Ti    c    0.991977 *  0.232731 *  0.311902 *   2.43600    1.000000    
     40 Ti    c    0.824756 *  0.233261 *  0.312601 *   2.43600    1.000000    
     41 Ti    c    0.658700 *  0.233178 *  0.312794 *   2.43600    1.000000    
     42 Ti    c    0.491724 *  0.232728 *  0.312091 *   2.43600    1.000000    
     43 Ti    c    0.325106 *  0.232905 *  0.311998 *   2.43600    1.000000    
     44 Ti    c    0.158302 *  0.899288 *  0.313532 *   2.43600    1.000000    
     45 Ti    c    0.992134 *  0.899538 *  0.312662 *   2.43600    1.000000    
     46 Ti    c    0.825243 *  0.899774 *  0.312082 *   2.43600    1.000000    
     47 Ti    c    0.658704 *  0.899805 *  0.311998 *   2.43600    1.000000    
     48 Ti    c    0.492024 *  0.899572 *  0.311894 *   2.43600    1.000000    
     49 Ti    c    0.324840 *  0.899491 *  0.312366 *   2.43600    1.000000    
     50 Ti    c    0.158245 *  0.566161 *  0.311960 *   2.43600    1.000000    
     51 Ti    c    0.991721 *  0.566283 *  0.311942 *   2.43600    1.000000    
     52 Ti    c    0.825185 *  0.566477 *  0.311784 *   2.43600    1.000000    
     53 Ti    c    0.658455 *  0.566392 *  0.311702 *   2.43600    1.000000    
     54 Ti    c    0.491846 *  0.566114 *  0.311741 *   2.43600    1.000000    
     55 Ti    c    0.408415 *  0.732547 *  0.312274 *   2.43600    1.000000    
     56 Ti    c    0.241757 *  0.399368 *  0.312811 *   2.43600    1.000000    
     57 Ti    c    0.075317 *  0.399570 *  0.312829 *   2.43600    1.000000    
     58 Ti    c    0.909212 *  0.400012 *  0.312512 *   2.43600    1.000000    
     59 Ti    c    0.741760 *  0.399983 *  0.312484 *   2.43600    1.000000    
     60 Ti    c    0.574298 *  0.399710 *  0.312486 *   2.43600    1.000000    
     61 Ti    c    0.408247 *  0.399443 *  0.312776 *   2.43600    1.000000    
     62 Ti    c    0.241951 *  0.066155 *  0.312778 *   2.43600    1.000000    
     63 Ti    c    0.075107 *  0.065835 *  0.312830 *   2.43600    1.000000    
     64 Ti    c    0.908483 *  0.066519 *  0.312905 *   2.43600    1.000000    
     65 Ti    c    0.741838 *  0.066513 *  0.312923 *   2.43600    1.000000    
     66 Ti    c    0.575160 *  0.066596 *  0.312835 *   2.43600    1.000000    
     67 Ti    c    0.408478 *  0.066183 *  0.312782 *   2.43600    1.000000    
     68 Ti    c    0.240169 *  0.732756 *  0.312158 *   2.43600    1.000000    
     69 Ti    c    0.074374 *  0.732914 *  0.312797 *   2.43600    1.000000    
     70 Ti    c    0.908369 *  0.733137 *  0.312834 *   2.43600    1.000000    
     71 Ti    c    0.742256 *  0.733076 *  0.312751 *   2.43600    1.000000    
     72 Ti    c    0.576704 *  0.733068 *  0.312166 *   2.43600    1.000000    
     73 Ti    c    0.325064 *  0.732951 *  0.284586 *   2.43600    1.000000    
     74 Ti    c    0.158484 *  0.399596 *  0.284950 *   2.43600    1.000000    
     75 Ti    c    0.991930 *  0.399634 *  0.284900 *   2.43600    1.000000    
     76 Ti    c    0.825116 *  0.399673 *  0.284761 *   2.43600    1.000000    
     77 Ti    c    0.658428 *  0.399665 *  0.284743 *   2.43600    1.000000    
     78 Ti    c    0.491654 *  0.399621 *  0.284860 *   2.43600    1.000000    
     79 Ti    c    0.325052 *  0.399587 *  0.284942 *   2.43600    1.000000    
     80 Ti    c    0.158461 *  0.066187 *  0.285056 *   2.43600    1.000000    
     81 Ti    c    0.991775 *  0.066305 *  0.285149 *   2.43600    1.000000    
     82 Ti    c    0.825087 *  0.066351 *  0.285123 *   2.43600    1.000000    
     83 Ti    c    0.658533 *  0.066362 *  0.285071 *   2.43600    1.000000    
     84 Ti    c    0.491886 *  0.066308 *  0.285052 *   2.43600    1.000000    
     85 Ti    c    0.325124 *  0.066191 *  0.285053 *   2.43600    1.000000    
     86 Ti    c    0.158083 *  0.732960 *  0.284809 *   2.43600    1.000000    
     87 Ti    c    0.991679 *  0.733033 *  0.285007 *   2.43600    1.000000    
     88 Ti    c    0.825196 *  0.733035 *  0.284941 *   2.43600    1.000000    
     89 Ti    c    0.658744 *  0.732992 *  0.284716 *   2.43600    1.000000    
     90 Ti    c    0.491805 *  0.732992 *  0.284522 *   2.43600    1.000000    
     91 Ti    c    0.408366 *  0.566298 *  0.284757 *   2.43600    1.000000    
     92 Ti    c    0.241797 *  0.232883 *  0.284987 *   2.43600    1.000000    
     93 Ti    c    0.075143 *  0.232958 *  0.284978 *   2.43600    1.000000    
     94 Ti    c    0.908077 *  0.233056 *  0.285122 *   2.43600    1.000000    
     95 Ti    c    0.741684 *  0.233080 *  0.285341 *   2.43600    1.000000    
     96 Ti    c    0.575478 *  0.233061 *  0.285210 *   2.43600    1.000000    
     97 Ti    c    0.408586 *  0.232973 *  0.285012 *   2.43600    1.000000    
     98 Ti    c    0.241207 *  0.899506 *  0.285474 *   2.43600    1.000000    
     99 Ti    c    0.075485 *  0.899646 *  0.285590 *   2.43600    1.000000    
    100 Ti    c    0.908915 *  0.899687 *  0.285225 *   2.43600    1.000000    
    101 Ti    c    0.742014 *  0.899710 *  0.285010 *   2.43600    1.000000    
    102 Ti    c    0.575195 *  0.899604 *  0.284929 *   2.43600    1.000000    
    103 Ti    c    0.408081 *  0.899599 *  0.285044 *   2.43600    1.000000    
    104 Ti    c    0.241611 *  0.566313 *  0.284833 *   2.43600    1.000000    
    105 Ti    c    0.075072 *  0.566322 *  0.284896 *   2.43600    1.000000    
    106 Ti    c    0.908556 *  0.566295 *  0.284841 *   2.43600    1.000000    
    107 Ti    c    0.741876 *  0.566308 *  0.284755 *   2.43600    1.000000    
    108 Ti    c    0.575105 *  0.566330 *  0.284725 *   2.43600    1.000000    
    109 Ti    c    0.325073 *  0.566328 *  0.257745 *   2.43600    1.000000    
    110 Ti    c    0.158458 *  0.232983 *  0.257953 *   2.43600    1.000000    
    111 Ti    c    0.991680 *  0.232997 *  0.257995 *   2.43600    1.000000    
    112 Ti    c    0.824988 *  0.233000 *  0.258121 *   2.43600    1.000000    
    113 Ti    c    0.658511 *  0.232997 *  0.258145 *   2.43600    1.000000    
    114 Ti    c    0.491923 *  0.232983 *  0.258032 *   2.43600    1.000000    
    115 Ti    c    0.325189 *  0.232973 *  0.257959 *   2.43600    1.000000    
    116 Ti    c    0.158399 *  0.899667 *  0.258346 *   2.43600    1.000000    
    117 Ti    c    0.991980 *  0.899684 *  0.258258 *   2.43600    1.000000    
    118 Ti    c    0.825290 *  0.899681 *  0.258047 *   2.43600    1.000000    
    119 Ti    c    0.658515 *  0.899659 *  0.257917 *   2.43600    1.000000    
    120 Ti    c    0.491699 *  0.899655 *  0.257921 *   2.43600    1.000000    
    121 Ti    c    0.324900 *  0.899652 *  0.258118 *   2.43600    1.000000    
    122 Ti    c    0.158412 *  0.566310 *  0.257819 *   2.43600    1.000000    
    123 Ti    c    0.991796 *  0.566308 *  0.257823 *   2.43600    1.000000    
    124 Ti    c    0.825155 *  0.566329 *  0.257760 *   2.43600    1.000000    
    125 Ti    c    0.658458 *  0.566349 *  0.257698 *   2.43600    1.000000    
    126 Ti    c    0.491757 *  0.566341 *  0.257694 *   2.43600    1.000000    
    127 Ti    c    0.408376 *  0.733033 *  0.256881 *   2.43600    1.000000    
    128 Ti    c    0.241783 *  0.399638 *  0.257115 *   2.43600    1.000000    
    129 Ti    c    0.075160 *  0.399627 *  0.257106 *   2.43600    1.000000    
    130 Ti    c    0.908518 *  0.399634 *  0.257059 *   2.43600    1.000000    
    131 Ti    c    0.741783 *  0.399671 *  0.257017 *   2.43600    1.000000    
    132 Ti    c    0.575048 *  0.399653 *  0.257034 *   2.43600    1.000000    
    133 Ti    c    0.408398 *  0.399629 *  0.257080 *   2.43600    1.000000    
    134 Ti    c    0.241777 *  0.066316 *  0.257261 *   2.43600    1.000000    
    135 Ti    c    0.075087 *  0.066335 *  0.257300 *   2.43600    1.000000    
    136 Ti    c    0.908471 *  0.066330 *  0.257308 *   2.43600    1.000000    
    137 Ti    c    0.741828 *  0.066306 *  0.257278 *   2.43600    1.000000    
    138 Ti    c    0.575158 *  0.066316 *  0.257241 *   2.43600    1.000000    
    139 Ti    c    0.408463 *  0.066308 *  0.257233 *   2.43600    1.000000    
    140 Ti    c    0.241571 *  0.733019 *  0.256997 *   2.43600    1.000000    
    141 Ti    c    0.074975 *  0.733013 *  0.257123 *   2.43600    1.000000    
    142 Ti    c    0.908518 *  0.733042 *  0.257141 *   2.43600    1.000000    
    143 Ti    c    0.741976 *  0.733033 *  0.257030 *   2.43600    1.000000    
    144 Ti    c    0.575260 *  0.733032 *  0.256907 *   2.43600    1.000000    
    145 Ti    c    0.408387 *  0.566352 *  0.230559 *   2.43600    1.000000    
    146 Ti    c    0.324987 *  0.733168 *  0.228429 *   2.43600    1.000000    
    147 Ti    c    0.241807 *  0.232924 *  0.230787 *   2.43600    1.000000    
    148 Ti    c    0.158440 *  0.399554 *  0.228569 *   2.43600    1.000000    
    149 Ti    c    0.075065 *  0.232925 *  0.230805 *   2.43600    1.000000    
    150 Ti    c    0.991798 *  0.399547 *  0.228548 *   2.43600    1.000000    
    151 Ti    c    0.908345 *  0.232943 *  0.230875 *   2.43600    1.000000    
    152 Ti    c    0.825139 *  0.399547 *  0.228508 *   2.43600    1.000000    
    153 Ti    c    0.741766 *  0.232941 *  0.230929 *   2.43600    1.000000    
    154 Ti    c    0.658461 *  0.399550 *  0.228497 *   2.43600    1.000000    
    155 Ti    c    0.575212 *  0.232937 *  0.230889 *   2.43600    1.000000    
    156 Ti    c    0.491776 *  0.399551 *  0.228523 *   2.43600    1.000000    
    157 Ti    c    0.408540 *  0.232940 *  0.230817 *   2.43600    1.000000    
    158 Ti    c    0.325095 *  0.399558 *  0.228557 *   2.43600    1.000000    
    159 Ti    c    0.241592 *  0.899738 *  0.231010 *   2.43600    1.000000    
    160 Ti    c    0.158413 *  0.066296 *  0.228749 *   2.43600    1.000000    
    161 Ti    c    0.075175 *  0.899735 *  0.231082 *   2.43600    1.000000    
    162 Ti    c    0.991795 *  0.066307 *  0.228776 *   2.43600    1.000000    
    163 Ti    c    0.908665 *  0.899736 *  0.230958 *   2.43600    1.000000    
    164 Ti    c    0.825171 *  0.066319 *  0.228758 *   2.43600    1.000000    
    165 Ti    c    0.741948 *  0.899742 *  0.230806 *   2.43600    1.000000    
    166 Ti    c    0.658504 *  0.066328 *  0.228722 *   2.43600    1.000000    
    167 Ti    c    0.575111 *  0.899729 *  0.230743 *   2.43600    1.000000    
    168 Ti    c    0.491791 *  0.066314 *  0.228703 *   2.43600    1.000000    
    169 Ti    c    0.408256 *  0.899732 *  0.230823 *   2.43600    1.000000    
    170 Ti    c    0.325076 *  0.066297 *  0.228717 *   2.43600    1.000000    
    171 Ti    c    0.241705 *  0.566355 *  0.230622 *   2.43600    1.000000    
    172 Ti    c    0.158352 *  0.733168 *  0.228542 *   2.43600    1.000000    
    173 Ti    c    0.075105 *  0.566356 *  0.230664 *   2.43600    1.000000    
    174 Ti    c    0.991815 *  0.733165 *  0.228606 *   2.43600    1.000000    
    175 Ti    c    0.908516 *  0.566338 *  0.230636 *   2.43600    1.000000    
    176 Ti    c    0.825244 *  0.733156 *  0.228555 *   2.43600    1.000000    
    177 Ti    c    0.741855 *  0.566344 *  0.230572 *   2.43600    1.000000    
    178 Ti    c    0.658551 *  0.733147 *  0.228442 *   2.43600    1.000000    
    179 Ti    c    0.575121 *  0.566357 *  0.230536 *   2.43600    1.000000    
    180 Ti    c    0.491757 *  0.733157 *  0.228378 *   2.43600    1.000000    
    181 O3    c    0.408757 *  0.730658 *  0.350266 *  -0.33800    1.000000    
    182 H22   c    0.405155 *  0.731944 *  0.358669 *   0.12000    1.000000    
    183 O2    c    0.241781 *  0.401023 *  0.350146 *  -1.21800    1.000000    
    184 O2    c    0.074544 *  0.400581 *  0.350222 *  -1.21800    1.000000    
    185 O2    c    0.904530 *  0.401191 *  0.349899 *  -1.21800    1.000000    
    186 O3    c    0.565364 *  0.218607 *  0.355771 *  -0.33800    1.000000    
    187 H22   c    0.566727 *  0.178954 *  0.360831 *   0.12000    1.000000    
    188 O2    c    0.578938 *  0.402957 *  0.349829 *  -1.21800    1.000000    
    189 O2    c    0.408915 *  0.403953 *  0.350087 *  -1.21800    1.000000    
    190 O2    c    0.241318 *  0.069113 *  0.349847 *  -1.21800    1.000000    
    191 O2    c    0.076155 *  0.069560 *  0.349913 *  -1.21800    1.000000    
    192 O2    c    0.908664 *  0.067317 *  0.350182 *  -1.21800    1.000000    
    193 O2    c    0.741717 *  0.063920 *  0.350103 *  -1.21800    1.000000    
    194 O2    c    0.574906 *  0.064351 *  0.350054 *  -1.21800    1.000000    
    195 O2    c    0.408501 *  0.064856 *  0.350008 *  -1.21800    1.000000    
    196 O2    c    0.245273 *  0.727932 *  0.349331 *  -1.21800    1.000000    
    197 O2    c    0.075651 *  0.727237 *  0.350050 *  -1.21800    1.000000    
    198 O2    c    0.908061 *  0.729812 *  0.350232 *  -1.21800    1.000000    
    199 O2    c    0.741517 *  0.729170 *  0.350184 *  -1.21800    1.000000    
    200 O2    c    0.570775 *  0.731752 *  0.349538 *  -1.21800    1.000000    
    201 O2    c    0.158747 *  0.173063 *  0.340291 *  -1.21800    1.000000    
    202 O2    c    0.991407 *  0.172954 *  0.340605 *  -1.21800    1.000000    
    203 O2    c    0.825979 *  0.172387 *  0.340664 *  -1.21800    1.000000    
    204 O2    c    0.657887 *  0.171413 *  0.340434 *  -1.21800    1.000000    
    205 O2    c    0.490628 *  0.171326 *  0.340255 *  -1.21800    1.000000    
    206 O2    c    0.326264 *  0.172849 *  0.340609 *  -1.21800    1.000000    
    207 O2    c    0.160188 *  0.832447 *  0.338898 *  -1.21800    1.000000    
    208 O2    c    0.989104 *  0.836147 *  0.340666 *  -1.21800    1.000000    
    209 O2    c    0.823952 *  0.838210 *  0.340902 *  -1.21800    1.000000    
    210 O2    c    0.657782 *  0.837948 *  0.340911 *  -1.21800    1.000000    
    211 O2    c    0.490213 *  0.835124 *  0.340629 *  -1.21800    1.000000    
    212 O2    c    0.332914 *  0.832534 *  0.340456 *  -1.21800    1.000000    
    213 O2    c    0.991208 *  0.505288 *  0.340765 *  -1.21800    1.000000    
    214 O2    c    0.492876 *  0.506801 *  0.340694 *  -1.21800    1.000000    
    215 O2    c    0.324439 *  0.506928 *  0.340560 *  -1.21800    1.000000    
    216 O2    c    0.158434 *  0.506136 *  0.340619 *  -1.21800    1.000000    
    217 O2    c    0.821863 *  0.504409 *  0.340769 *  -1.21800    1.000000    
    218 O2    c    0.660983 *  0.505170 *  0.340694 *  -1.21800    1.000000    
    219 O2    c    0.329551 *  0.629183 *  0.340562 *  -1.21800    1.000000    
    220 O2    c    0.158610 *  0.294017 *  0.340740 *  -1.21800    1.000000    
    221 O2    c    0.991599 *  0.294512 *  0.340761 *  -1.21800    1.000000    
    222 O2    c    0.830089 *  0.298182 *  0.339054 *  -1.21800    1.000000    
    223 O2    c    0.653781 *  0.298493 *  0.339124 *  -1.21800    1.000000    
    224 O2    c    0.490869 *  0.295412 *  0.340613 *  -1.21800    1.000000    
    225 O2    c    0.325677 *  0.294360 *  0.340775 *  -1.21800    1.000000    
    226 O2    c    0.989782 *  0.961447 *  0.340559 *  -1.21800    1.000000    
    227 O2    c    0.492114 *  0.958287 *  0.340654 *  -1.21800    1.000000    
    228 O2    c    0.327277 *  0.960747 *  0.340152 *  -1.21800    1.000000    
    229 O2    c    0.159344 *  0.626688 *  0.340395 *  -1.21800    1.000000    
    230 O2    c    0.990524 *  0.625829 *  0.340519 *  -1.21800    1.000000    
    231 O2    c    0.824890 *  0.626153 *  0.340484 *  -1.21800    1.000000    
    232 O2    c    0.656531 *  0.626970 *  0.340608 *  -1.21800    1.000000    
    233 O2    c    0.489672 *  0.629157 *  0.340524 *  -1.21800    1.000000    
    234 O2    c    0.159041 *  0.964329 *  0.338823 *  -1.21800    1.000000    
    235 O2    c    0.825661 *  0.959923 *  0.340694 *  -1.21800    1.000000    
    236 O2    c    0.658131 *  0.959378 *  0.340566 *  -1.21800    1.000000    
    237 O2    c    0.409111 *  0.731165 *  0.330170 *  -1.21800    1.000000    
    238 O2    c    0.242183 *  0.399858 *  0.329455 *  -1.21800    1.000000    
    239 O2    c    0.075097 *  0.399874 *  0.329485 *  -1.21800    1.000000    
    240 O2    c    0.909927 *  0.403130 *  0.329145 *  -1.21800    1.000000    
    241 O2    c    0.741635 *  0.403794 *  0.329628 *  -1.21800    1.000000    
    242 O2    c    0.573241 *  0.403675 *  0.329123 *  -1.21800    1.000000    
    243 O2    c    0.408539 *  0.401209 *  0.329462 *  -1.21800    1.000000    
    244 O2    c    0.243905 *  0.069319 *  0.329184 *  -1.21800    1.000000    
    245 O2    c    0.073681 *  0.069336 *  0.329232 *  -1.21800    1.000000    
    246 O2    c    0.907760 *  0.067063 *  0.329435 *  -1.21800    1.000000    
    247 O2    c    0.741649 *  0.064916 *  0.329457 *  -1.21800    1.000000    
    248 O2    c    0.574788 *  0.065202 *  0.329393 *  -1.21800    1.000000    
    249 O2    c    0.409433 *  0.065558 *  0.329323 *  -1.21800    1.000000    
    250 O2    c    0.240834 *  0.728694 *  0.328617 *  -1.21800    1.000000    
    251 O2    c    0.073109 *  0.729074 *  0.329307 *  -1.21800    1.000000    
    252 O2    c    0.906771 *  0.732347 *  0.329450 *  -1.21800    1.000000    
    253 O2    c    0.741092 *  0.732163 *  0.329494 *  -1.21800    1.000000    
    254 O2    c    0.577906 *  0.732802 *  0.328881 *  -1.21800    1.000000    
    255 O2    c    0.409069 *  0.566098 *  0.322702 *  -1.21800    1.000000    
    256 O2    c    0.242272 *  0.233754 *  0.322888 *  -1.21800    1.000000    
    257 O2    c    0.075052 *  0.233850 *  0.322848 *  -1.21800    1.000000    
    258 O2    c    0.910469 *  0.232376 *  0.322790 *  -1.21800    1.000000    
    259 O2    c    0.742058 *  0.233315 *  0.323517 *  -1.21800    1.000000    
    260 O2    c    0.572954 *  0.232535 *  0.323025 *  -1.21800    1.000000    
    261 O2    c    0.407971 *  0.233811 *  0.322870 *  -1.21800    1.000000    
    262 O2    c    0.246169 *  0.897407 *  0.323524 *  -1.21800    1.000000    
    263 O2    c    0.072287 *  0.898504 *  0.323647 *  -1.21800    1.000000    
    264 O2    c    0.906338 *  0.898794 *  0.323041 *  -1.21800    1.000000    
    265 O2    c    0.741034 *  0.898828 *  0.322961 *  -1.21800    1.000000    
    266 O2    c    0.574898 *  0.897782 *  0.322929 *  -1.21800    1.000000    
    267 O2    c    0.410658 *  0.898349 *  0.322801 *  -1.21800    1.000000    
    268 O2    c    0.242923 *  0.567066 *  0.322847 *  -1.21800    1.000000    
    269 O2    c    0.074933 *  0.565952 *  0.322855 *  -1.21800    1.000000    
    270 O2    c    0.907366 *  0.565140 *  0.322852 *  -1.21800    1.000000    
    271 O2    c    0.741022 *  0.566899 *  0.322690 *  -1.21800    1.000000    
    272 O2    c    0.575048 *  0.566600 *  0.322840 *  -1.21800    1.000000    
    273 O2    c    0.326312 *  0.667559 *  0.312469 *  -1.21800    1.000000    
    274 O2    c    0.325312 *  0.465448 *  0.312432 *  -1.21800    1.000000    
    275 O2    c    0.158608 *  0.334422 *  0.312476 *  -1.21800    1.000000    
    276 O2    c    0.158664 *  0.132043 *  0.312327 *  -1.21800    1.000000    
    277 O2    c    0.991800 *  0.334603 *  0.312341 *  -1.21800    1.000000    
    278 O2    c    0.991782 *  0.131977 *  0.312197 *  -1.21800    1.000000    
    279 O2    c    0.824815 *  0.335631 *  0.312699 *  -1.21800    1.000000    
    280 O2    c    0.824773 *  0.132025 *  0.312560 *  -1.21800    1.000000    
    281 O2    c    0.658489 *  0.335678 *  0.312771 *  -1.21800    1.000000    
    282 O2    c    0.658367 *  0.131800 *  0.312641 *  -1.21800    1.000000    
    283 O2    c    0.491637 *  0.334681 *  0.312416 *  -1.21800    1.000000    
    284 O2    c    0.491648 *  0.131618 *  0.312380 *  -1.21800    1.000000    
    285 O2    c    0.325287 *  0.334551 *  0.312467 *  -1.21800    1.000000    
    286 O2    c    0.325762 *  0.132056 *  0.312291 *  -1.21800    1.000000    
    287 O2    c    0.159009 *  0.000811 *  0.312727 *  -1.21800    1.000000    
    288 O2    c    0.158035 *  0.797447 *  0.312455 *  -1.21800    1.000000    
    289 O2    c    0.991255 *  0.000870 *  0.312551 *  -1.21800    1.000000    
    290 O2    c    0.991127 *  0.797704 *  0.312504 *  -1.21800    1.000000    
    291 O2    c    0.824701 *  0.000720 *  0.312474 *  -1.21800    1.000000    
    292 O2    c    0.824517 *  0.798078 *  0.312463 *  -1.21800    1.000000    
    293 O2    c    0.658043 *  0.000372 *  0.312465 *  -1.21800    1.000000    
    294 O2    c    0.658799 *  0.798240 *  0.312235 *  -1.21800    1.000000    
    295 O2    c    0.492200 *  0.000185 *  0.312388 *  -1.21800    1.000000    
    296 O2    c    0.491672 *  0.796681 *  0.312691 *  -1.21800    1.000000    
    297 O2    c    0.325844 *  0.000481 *  0.312409 *  -1.21800    1.000000    
    298 O2    c    0.326192 *  0.796374 *  0.312712 *  -1.21800    1.000000    
    299 O2    c    0.157895 *  0.666689 *  0.312060 *  -1.21800    1.000000    
    300 O2    c    0.158927 *  0.465312 *  0.312501 *  -1.21800    1.000000    
    301 O2    c    0.990775 *  0.666785 *  0.312337 *  -1.21800    1.000000    
    302 O2    c    0.992214 *  0.465435 *  0.312264 *  -1.21800    1.000000    
    303 O2    c    0.824693 *  0.667133 *  0.312425 *  -1.21800    1.000000    
    304 O2    c    0.824551 *  0.465331 *  0.312420 *  -1.21800    1.000000    
    305 O2    c    0.658662 *  0.667153 *  0.312186 *  -1.21800    1.000000    
    306 O2    c    0.658197 *  0.465522 *  0.312418 *  -1.21800    1.000000    
    307 O2    c    0.491866 *  0.667986 *  0.312689 *  -1.21800    1.000000    
    308 O2    c    0.491380 *  0.465796 *  0.312212 *  -1.21800    1.000000    
    309 O2    c    0.408538 *  0.567423 *  0.301360 *  -1.21800    1.000000    
    310 O2    c    0.241859 *  0.233437 *  0.301518 *  -1.21800    1.000000    
    311 O2    c    0.075449 *  0.233484 *  0.301483 *  -1.21800    1.000000    
    312 O2    c    0.907200 *  0.234091 *  0.301626 *  -1.21800    1.000000    
    313 O2    c    0.741362 *  0.234267 *  0.301976 *  -1.21800    1.000000    
    314 O2    c    0.576159 *  0.233864 *  0.301771 *  -1.21800    1.000000    
    315 O2    c    0.408729 *  0.233430 *  0.301532 *  -1.21800    1.000000    
    316 O2    c    0.240959 *  0.898420 *  0.302087 *  -1.21800    1.000000    
    317 O2    c    0.076096 *  0.899577 *  0.302171 *  -1.21800    1.000000    
    318 O2    c    0.909093 *  0.899307 *  0.301740 *  -1.21800    1.000000    
    319 O2    c    0.741879 *  0.899489 *  0.301553 *  -1.21800    1.000000    
    320 O2    c    0.575107 *  0.898318 *  0.301519 *  -1.21800    1.000000    
    321 O2    c    0.408059 *  0.897930 *  0.301600 *  -1.21800    1.000000    
    322 O2    c    0.241846 *  0.566568 *  0.301426 *  -1.21800    1.000000    
    323 O2    c    0.075080 *  0.565917 *  0.301442 *  -1.21800    1.000000    
    324 O2    c    0.908342 *  0.565901 *  0.301413 *  -1.21800    1.000000    
    325 O2    c    0.741763 *  0.565861 *  0.301332 *  -1.21800    1.000000    
    326 O2    c    0.574899 *  0.566971 *  0.301363 *  -1.21800    1.000000    
    327 O2    c    0.408924 *  0.732447 *  0.295514 *  -1.21800    1.000000    
    328 O2    c    0.241922 *  0.399909 *  0.295776 *  -1.21800    1.000000    
    329 O2    c    0.075237 *  0.399852 *  0.295752 *  -1.21800    1.000000    
    330 O2    c    0.908005 *  0.400090 *  0.295647 *  -1.21800    1.000000    
    331 O2    c    0.741557 *  0.400060 *  0.295638 *  -1.21800    1.000000    
    332 O2    c    0.575363 *  0.400083 *  0.295644 *  -1.21800    1.000000    
    333 O2    c    0.408567 *  0.399975 *  0.295736 *  -1.21800    1.000000    
    334 O2    c    0.241979 *  0.066254 *  0.295800 *  -1.21800    1.000000    
    335 O2    c    0.075393 *  0.066073 *  0.295829 *  -1.21800    1.000000    
    336 O2    c    0.908131 *  0.066361 *  0.295862 *  -1.21800    1.000000    
    337 O2    c    0.741491 *  0.066321 *  0.295880 *  -1.21800    1.000000    
    338 O2    c    0.575200 *  0.066217 *  0.295832 *  -1.21800    1.000000    
    339 O2    c    0.408698 *  0.066021 *  0.295785 *  -1.21800    1.000000    
    340 O2    c    0.242597 *  0.732460 *  0.295502 *  -1.21800    1.000000    
    341 O2    c    0.075179 *  0.732493 *  0.295723 *  -1.21800    1.000000    
    342 O2    c    0.907987 *  0.732579 *  0.295779 *  -1.21800    1.000000    
    343 O2    c    0.741305 *  0.732585 *  0.295689 *  -1.21800    1.000000    
    344 O2    c    0.574538 *  0.732632 *  0.295489 *  -1.21800    1.000000    
    345 O2    c    0.325224 *  0.501690 *  0.284937 *  -1.21800    1.000000    
    346 O2    c    0.325252 *  0.631125 *  0.284798 *  -1.21800    1.000000    
    347 O2    c    0.158550 *  0.168244 *  0.284963 *  -1.21800    1.000000    
    348 O2    c    0.158592 *  0.297958 *  0.284921 *  -1.21800    1.000000    
    349 O2    c    0.991564 *  0.168455 *  0.285105 *  -1.21800    1.000000    
    350 O2    c    0.991655 *  0.297954 *  0.285007 *  -1.21800    1.000000    
    351 O2    c    0.824697 *  0.168322 *  0.285120 *  -1.21800    1.000000    
    352 O2    c    0.824723 *  0.298211 *  0.284994 *  -1.21800    1.000000    
    353 O2    c    0.658549 *  0.168243 *  0.285118 *  -1.21800    1.000000    
    354 O2    c    0.658518 *  0.298244 *  0.285007 *  -1.21800    1.000000    
    355 O2    c    0.492085 *  0.168326 *  0.285107 *  -1.21800    1.000000    
    356 O2    c    0.492000 *  0.298003 *  0.285032 *  -1.21800    1.000000    
    357 O2    c    0.325342 *  0.168240 *  0.285000 *  -1.21800    1.000000    
    358 O2    c    0.325255 *  0.297932 *  0.284969 *  -1.21800    1.000000    
    359 O2    c    0.158498 *  0.834298 *  0.285066 *  -1.21800    1.000000    
    360 O2    c    0.158630 *  0.964469 *  0.285133 *  -1.21800    1.000000    
    361 O2    c    0.992037 *  0.834649 *  0.285180 *  -1.21800    1.000000    
    362 O2    c    0.992050 *  0.964412 *  0.285203 *  -1.21800    1.000000    
    363 O2    c    0.825126 *  0.834720 *  0.285056 *  -1.21800    1.000000    
    364 O2    c    0.825191 *  0.964323 *  0.285101 *  -1.21800    1.000000    
    365 O2    c    0.658429 *  0.834575 *  0.284908 *  -1.21800    1.000000    
    366 O2    c    0.658330 *  0.964212 *  0.285042 *  -1.21800    1.000000    
    367 O2    c    0.491748 *  0.834516 *  0.284932 *  -1.21800    1.000000    
    368 O2    c    0.491748 *  0.964042 *  0.285104 *  -1.21800    1.000000    
    369 O2    c    0.325023 *  0.834423 *  0.285068 *  -1.21800    1.000000    
    370 O2    c    0.324962 *  0.964077 *  0.285203 *  -1.21800    1.000000    
    371 O2    c    0.158553 *  0.501534 *  0.284896 *  -1.21800    1.000000    
    372 O2    c    0.158532 *  0.631043 *  0.284830 *  -1.21800    1.000000    
    373 O2    c    0.991745 *  0.501471 *  0.284849 *  -1.21800    1.000000    
    374 O2    c    0.991666 *  0.630992 *  0.284904 *  -1.21800    1.000000    
    375 O2    c    0.825024 *  0.501548 *  0.284823 *  -1.21800    1.000000    
    376 O2    c    0.824986 *  0.631002 *  0.284892 *  -1.21800    1.000000    
    377 O2    c    0.658266 *  0.501687 *  0.284855 *  -1.21800    1.000000    
    378 O2    c    0.658329 *  0.631090 *  0.284817 *  -1.21800    1.000000    
    379 O2    c    0.491782 *  0.501739 *  0.284890 *  -1.21800    1.000000    
    380 O2    c    0.491820 *  0.631191 *  0.284774 *  -1.21800    1.000000    
    381 O2    c    0.408420 *  0.732960 *  0.273893 *  -1.21800    1.000000    
    382 O2    c    0.241897 *  0.399859 *  0.274132 *  -1.21800    1.000000    
    383 O2    c    0.075230 *  0.399660 *  0.274114 *  -1.21800    1.000000    
    384 O2    c    0.908594 *  0.399719 *  0.274055 *  -1.21800    1.000000    
    385 O2    c    0.741689 *  0.400132 *  0.274016 *  -1.21800    1.000000    
    386 O2    c    0.574881 *  0.400024 *  0.274045 *  -1.21800    1.000000    
    387 O2    c    0.408380 *  0.399890 *  0.274106 *  -1.21800    1.000000    
    388 O2    c    0.241970 *  0.066394 *  0.274230 *  -1.21800    1.000000    
    389 O2    c    0.074965 *  0.066678 *  0.274264 *  -1.21800    1.000000    
    390 O2    c    0.908422 *  0.066397 *  0.274290 *  -1.21800    1.000000    
    391 O2    c    0.741775 *  0.066040 *  0.274271 *  -1.21800    1.000000    
    392 O2    c    0.575127 *  0.066071 *  0.274244 *  -1.21800    1.000000    
    393 O2    c    0.408586 *  0.066082 *  0.274231 *  -1.21800    1.000000    
    394 O2    c    0.241556 *  0.732672 *  0.273966 *  -1.21800    1.000000    
    395 O2    c    0.074731 *  0.732625 *  0.274103 *  -1.21800    1.000000    
    396 O2    c    0.908440 *  0.732922 *  0.274151 *  -1.21800    1.000000    
    397 O2    c    0.742073 *  0.732861 *  0.274050 *  -1.21800    1.000000    
    398 O2    c    0.575401 *  0.732909 *  0.273917 *  -1.21800    1.000000    
    399 O2    c    0.408570 *  0.566352 *  0.268237 *  -1.21800    1.000000    
    400 O2    c    0.241898 *  0.233104 *  0.268431 *  -1.21800    1.000000    
    401 O2    c    0.075111 *  0.233133 *  0.268442 *  -1.21800    1.000000    
    402 O2    c    0.908501 *  0.233147 *  0.268538 *  -1.21800    1.000000    
    403 O2    c    0.741725 *  0.233159 *  0.268637 *  -1.21800    1.000000    
    404 O2    c    0.575005 *  0.233141 *  0.268582 *  -1.21800    1.000000    
    405 O2    c    0.408510 *  0.233114 *  0.268471 *  -1.21800    1.000000    
    406 O2    c    0.242209 *  0.899402 *  0.268729 *  -1.21800    1.000000    
    407 O2    c    0.075028 *  0.899496 *  0.268801 *  -1.21800    1.000000    
    408 O2    c    0.908214 *  0.899492 *  0.268625 *  -1.21800    1.000000    
    409 O2    c    0.741592 *  0.899505 *  0.268464 *  -1.21800    1.000000    
    410 O2    c    0.575056 *  0.899449 *  0.268405 *  -1.21800    1.000000    
    411 O2    c    0.408699 *  0.899428 *  0.268500 *  -1.21800    1.000000    
    412 O2    c    0.241993 *  0.566288 *  0.268289 *  -1.21800    1.000000    
    413 O2    c    0.075131 *  0.566296 *  0.268328 *  -1.21800    1.000000    
    414 O2    c    0.908287 *  0.566340 *  0.268296 *  -1.21800    1.000000    
    415 O2    c    0.741596 *  0.566353 *  0.268239 *  -1.21800    1.000000    
    416 O2    c    0.575065 *  0.566368 *  0.268212 *  -1.21800    1.000000    
    417 O2    c    0.325153 *  0.667467 *  0.257318 *  -1.21800    1.000000    
    418 O2    c    0.325189 *  0.465257 *  0.257390 *  -1.21800    1.000000    
    419 O2    c    0.158530 *  0.334187 *  0.257455 *  -1.21800    1.000000    
    420 O2    c    0.158503 *  0.131907 *  0.257549 *  -1.21800    1.000000    
    421 O2    c    0.991794 *  0.334188 *  0.257451 *  -1.21800    1.000000    
    422 O2    c    0.991711 *  0.131947 *  0.257570 *  -1.21800    1.000000    
    423 O2    c    0.825035 *  0.334252 *  0.257488 *  -1.21800    1.000000    
    424 O2    c    0.825032 *  0.131894 *  0.257627 *  -1.21800    1.000000    
    425 O2    c    0.658382 *  0.334277 *  0.257498 *  -1.21800    1.000000    
    426 O2    c    0.658436 *  0.131851 *  0.257631 *  -1.21800    1.000000    
    427 O2    c    0.491777 *  0.334227 *  0.257474 *  -1.21800    1.000000    
    428 O2    c    0.491848 *  0.131844 *  0.257589 *  -1.21800    1.000000    
    429 O2    c    0.325186 *  0.334200 *  0.257462 *  -1.21800    1.000000    
    430 O2    c    0.325249 *  0.131867 *  0.257548 *  -1.21800    1.000000    
    431 O2    c    0.158498 *  0.000803 *  0.257691 *  -1.21800    1.000000    
    432 O2    c    0.158375 *  0.798425 *  0.257543 *  -1.21800    1.000000    
    433 O2    c    0.991771 *  0.000801 *  0.257669 *  -1.21800    1.000000    
    434 O2    c    0.991743 *  0.798478 *  0.257546 *  -1.21800    1.000000    
    435 O2    c    0.825090 *  0.000762 *  0.257601 *  -1.21800    1.000000    
    436 O2    c    0.825128 *  0.798478 *  0.257472 *  -1.21800    1.000000    
    437 O2    c    0.658406 *  0.000716 *  0.257544 *  -1.21800    1.000000    
    438 O2    c    0.658519 *  0.798435 *  0.257385 *  -1.21800    1.000000    
    439 O2    c    0.491813 *  0.000703 *  0.257541 *  -1.21800    1.000000    
    440 O2    c    0.491813 *  0.798389 *  0.257371 *  -1.21800    1.000000    
    441 O2    c    0.325209 *  0.000728 *  0.257605 *  -1.21800    1.000000    
    442 O2    c    0.325114 *  0.798392 *  0.257439 *  -1.21800    1.000000    
    443 O2    c    0.158382 *  0.667391 *  0.257369 *  -1.21800    1.000000    
    444 O2    c    0.158520 *  0.465212 *  0.257417 *  -1.21800    1.000000    
    445 O2    c    0.991685 *  0.667371 *  0.257398 *  -1.21800    1.000000    
    446 O2    c    0.991813 *  0.465199 *  0.257399 *  -1.21800    1.000000    
    447 O2    c    0.825116 *  0.667414 *  0.257379 *  -1.21800    1.000000    
    448 O2    c    0.825084 *  0.465221 *  0.257366 *  -1.21800    1.000000    
    449 O2    c    0.658511 *  0.667463 *  0.257319 *  -1.21800    1.000000    
    450 O2    c    0.658344 *  0.465269 *  0.257342 *  -1.21800    1.000000    
    451 O2    c    0.491819 *  0.667513 *  0.257302 *  -1.21800    1.000000    
    452 O2    c    0.491731 *  0.465281 *  0.257354 *  -1.21800    1.000000    
    453 O2    c    0.408404 *  0.566483 *  0.246853 *  -1.21800    1.000000    
    454 O2    c    0.241895 *  0.233028 *  0.247068 *  -1.21800    1.000000    
    455 O2    c    0.075042 *  0.233067 *  0.247084 *  -1.21800    1.000000    
    456 O2    c    0.908151 *  0.233110 *  0.247155 *  -1.21800    1.000000    
    457 O2    c    0.741667 *  0.233090 *  0.247215 *  -1.21800    1.000000    
    458 O2    c    0.575310 *  0.233039 *  0.247177 *  -1.21800    1.000000    
    459 O2    c    0.408681 *  0.233024 *  0.247100 *  -1.21800    1.000000    
    460 O2    c    0.241479 *  0.899611 *  0.247295 *  -1.21800    1.000000    
    461 O2    c    0.075283 *  0.899697 *  0.247359 *  -1.21800    1.000000    
    462 O2    c    0.908800 *  0.899681 *  0.247236 *  -1.21800    1.000000    
    463 O2    c    0.741989 *  0.899606 *  0.247092 *  -1.21800    1.000000    
    464 O2    c    0.575076 *  0.899501 *  0.247035 *  -1.21800    1.000000    
    465 O2    c    0.408143 *  0.899500 *  0.247116 *  -1.21800    1.000000    
    466 O2    c    0.241726 *  0.566361 *  0.246908 *  -1.21800    1.000000    
    467 O2    c    0.075118 *  0.566248 *  0.246944 *  -1.21800    1.000000    
    468 O2    c    0.908499 *  0.566221 *  0.246918 *  -1.21800    1.000000    
    469 O2    c    0.741827 *  0.566320 *  0.246862 *  -1.21800    1.000000    
    470 O2    c    0.575089 *  0.566466 *  0.246832 *  -1.21800    1.000000    
    471 O2    c    0.408513 *  0.732978 *  0.240340 *  -1.21800    1.000000    
    472 O2    c    0.241860 *  0.399683 *  0.240502 *  -1.21800    1.000000    
    473 O2    c    0.075121 *  0.399694 *  0.240497 *  -1.21800    1.000000    
    474 O2    c    0.908359 *  0.399665 *  0.240468 *  -1.21800    1.000000    
    475 O2    c    0.741709 *  0.399642 *  0.240442 *  -1.21800    1.000000    
    476 O2    c    0.575127 *  0.399640 *  0.240450 *  -1.21800    1.000000    
    477 O2    c    0.408527 *  0.399653 *  0.240478 *  -1.21800    1.000000    
    478 O2    c    0.241870 *  0.066275 *  0.240663 *  -1.21800    1.000000    
    479 O2    c    0.075158 *  0.066257 *  0.240694 *  -1.21800    1.000000    
    480 O2    c    0.908392 *  0.066329 *  0.240698 *  -1.21800    1.000000    
    481 O2    c    0.741709 *  0.066387 *  0.240672 *  -1.21800    1.000000    
    482 O2    c    0.575107 *  0.066397 *  0.240642 *  -1.21800    1.000000    
    483 O2    c    0.408524 *  0.066344 *  0.240637 *  -1.21800    1.000000    
    484 O2    c    0.241905 *  0.733020 *  0.240429 *  -1.21800    1.000000    
    485 O2    c    0.075179 *  0.733031 *  0.240521 *  -1.21800    1.000000    
    486 O2    c    0.908388 *  0.733014 *  0.240525 *  -1.21800    1.000000    
    487 O2    c    0.741672 *  0.732985 *  0.240438 *  -1.21800    1.000000    
    488 O2    c    0.575045 *  0.732974 *  0.240348 *  -1.21800    1.000000    
    489 O2    c    0.325065 *  0.505685 *  0.229214 *  -1.21800    1.000000    
    490 O2    c    0.158461 *  0.172302 *  0.229423 *  -1.21800    1.000000    
    491 O2    c    0.991656 *  0.172305 *  0.229465 *  -1.21800    1.000000    
    492 O2    c    0.824999 *  0.172273 *  0.229482 *  -1.21800    1.000000    
    493 O2    c    0.658482 *  0.172259 *  0.229464 *  -1.21800    1.000000    
    494 O2    c    0.491910 *  0.172274 *  0.229427 *  -1.21800    1.000000    
    495 O2    c    0.325233 *  0.172288 *  0.229405 *  -1.21800    1.000000    
    496 O2    c    0.158387 *  0.839022 *  0.229477 *  -1.21800    1.000000    
    497 O2    c    0.991959 *  0.839047 *  0.229493 *  -1.21800    1.000000    
    498 O2    c    0.825318 *  0.839076 *  0.229394 *  -1.21800    1.000000    
    499 O2    c    0.658526 *  0.839079 *  0.229285 *  -1.21800    1.000000    
    500 O2    c    0.491663 *  0.839078 *  0.229272 *  -1.21800    1.000000    
    501 O2    c    0.324888 *  0.839054 *  0.229371 *  -1.21800    1.000000    
    502 O2    c    0.158417 *  0.505654 *  0.229230 *  -1.21800    1.000000    
    503 O2    c    0.991818 *  0.505644 *  0.229220 *  -1.21800    1.000000    
    504 O2    c    0.825172 *  0.505668 *  0.229191 *  -1.21800    1.000000    
    505 O2    c    0.658464 *  0.505701 *  0.229174 *  -1.21800    1.000000    
    506 O2    c    0.491754 *  0.505704 *  0.229185 *  -1.21800    1.000000    
    507 O2    c    0.325069 *  0.627039 *  0.229150 *  -1.21800    1.000000    
    508 O2    c    0.158458 *  0.293588 *  0.229340 *  -1.21800    1.000000    
    509 O2    c    0.991671 *  0.293597 *  0.229362 *  -1.21800    1.000000    
    510 O2    c    0.824994 *  0.293632 *  0.229375 *  -1.21800    1.000000    
    511 O2    c    0.658478 *  0.293640 *  0.229375 *  -1.21800    1.000000    
    512 O2    c    0.491914 *  0.293612 *  0.229359 *  -1.21800    1.000000    
    513 O2    c    0.325215 *  0.293595 *  0.229340 *  -1.21800    1.000000    
    514 O2    c    0.158384 *  0.960435 *  0.229553 *  -1.21800    1.000000    
    515 O2    c    0.991960 *  0.960419 *  0.229552 *  -1.21800    1.000000    
    516 O2    c    0.825325 *  0.960369 *  0.229481 *  -1.21800    1.000000    
    517 O2    c    0.658516 *  0.960335 *  0.229416 *  -1.21800    1.000000    
    518 O2    c    0.491667 *  0.960327 *  0.229422 *  -1.21800    1.000000    
    519 O2    c    0.324898 *  0.960373 *  0.229493 *  -1.21800    1.000000    
    520 O2    c    0.158421 *  0.627030 *  0.229231 *  -1.21800    1.000000    
    521 O2    c    0.991799 *  0.627025 *  0.229261 *  -1.21800    1.000000    
    522 O2    c    0.825174 *  0.627025 *  0.229211 *  -1.21800    1.000000    
    523 O2    c    0.658475 *  0.627035 *  0.229133 *  -1.21800    1.000000    
    524 O2    c    0.491750 *  0.627045 *  0.229099 *  -1.21800    1.000000    
    525 O2    c    0.408284 *  0.733350 *  0.219693 *  -1.21800    1.000000    
    526 O2    c    0.241761 *  0.399464 *  0.219843 *  -1.21800    1.000000    
    527 O2    c    0.075153 *  0.399358 *  0.219837 *  -1.21800    1.000000    
    528 O2    c    0.908525 *  0.399445 *  0.219809 *  -1.21800    1.000000    
    529 O2    c    0.741807 *  0.399624 *  0.219784 *  -1.21800    1.000000    
    530 O2    c    0.575073 *  0.399615 *  0.219792 *  -1.21800    1.000000    
    531 O2    c    0.408390 *  0.399541 *  0.219821 *  -1.21800    1.000000    
    532 O2    c    0.241699 *  0.066403 *  0.220006 *  -1.21800    1.000000    
    533 O2    c    0.075060 *  0.066556 *  0.220034 *  -1.21800    1.000000    
    534 O2    c    0.908508 *  0.066330 *  0.220038 *  -1.21800    1.000000    
    535 O2    c    0.741892 *  0.066118 *  0.220013 *  -1.21800    1.000000    
    536 O2    c    0.575175 *  0.066087 *  0.219987 *  -1.21800    1.000000    
    537 O2    c    0.408415 *  0.066153 *  0.219985 *  -1.21800    1.000000    
    538 O2    c    0.241489 *  0.733180 *  0.219769 *  -1.21800    1.000000    
    539 O2    c    0.074980 *  0.733132 *  0.219852 *  -1.21800    1.000000    
    540 O2    c    0.908616 *  0.733254 *  0.219859 *  -1.21800    1.000000    
    541 O2    c    0.742082 *  0.733276 *  0.219783 *  -1.21800    1.000000    
    542 O2    c    0.575255 *  0.733323 *  0.219700 *  -1.21800    1.000000    
    543 O176  c    0.741176 *  0.384272 *  0.351092 *  -1.08000    1.000000    
    544 O177  c    0.135658 *  0.883313 *  0.417118 *  -1.08000    1.000000    
    545 O176  c    0.742813 *  0.272304 *  0.355258 *  -1.08000    1.000000    
    546 O177  c    0.259671 *  0.882576 *  0.415680 *  -1.08000    1.000000    
    547 O176  c    0.226266 *  0.896190 *  0.355893 *  -1.08000    1.000000    
    548 O177  c    0.714052 *  0.431751 *  0.412958 *  -1.08000    1.000000    
    549 O176  c    0.101082 *  0.897102 *  0.356250 *  -1.08000    1.000000    
    550 O177  c    0.716546 *  0.319063 *  0.414337 *  -1.08000    1.000000    
    551 O171  c    0.207211 *  0.878263 *  0.441683 *  -2.00000    1.000000    
    552 O171  c    0.708408 *  0.378164 *  0.439295 *  -2.00000    1.000000    
    553 O170  c    0.297690 *  0.739729 *  0.447330 *  -1.08000    1.000000    
    554 O170  c    0.051554 *  0.959815 *  0.436709 *  -1.08000    1.000000    
    555 O170  c    0.357268 *  0.794413 *  0.433459 *  -1.08000    1.000000    
    556 O170  c    0.123091 *  0.020117 *  0.448376 *  -1.08000    1.000000    
    557 O170  c    0.359149 *  0.961231 *  0.434122 *  -1.08000    1.000000    
    558 O170  c    0.054395 *  0.794761 *  0.435701 *  -1.08000    1.000000    
    559 O170  c    0.297217 *  0.017136 *  0.447593 *  -1.08000    1.000000    
    560 O170  c    0.122331 *  0.736639 *  0.448174 *  -1.08000    1.000000    
    561 O170  c    0.213116 *  0.934212 *  0.466895 *  -1.08000    1.000000    
    562 O170  c    0.672444 *  0.384858 *  0.526405 *  -1.08000    1.000000    
    563 O170  c    0.213395 *  0.820968 *  0.467011 *  -1.08000    1.000000    
    564 O170  c    0.796545 *  0.384941 *  0.525663 *  -1.08000    1.000000    
    565 O170  c    0.772749 *  0.381173 *  0.464700 *  -1.08000    1.000000    
    566 O170  c    0.237151 *  0.940350 *  0.527076 *  -1.08000    1.000000    
    567 O170  c    0.648755 *  0.381028 *  0.465342 *  -1.08000    1.000000    
    568 O170  c    0.237460 *  0.827283 *  0.527300 *  -1.08000    1.000000    
    569 O170  c    0.556509 *  0.295916 *  0.446464 *  -1.08000    1.000000    
    570 O170  c    0.793302 *  0.518824 *  0.432821 *  -1.08000    1.000000    
    571 O170  c    0.618422 *  0.240257 *  0.432951 *  -1.08000    1.000000    
    572 O170  c    0.860829 *  0.461202 *  0.445436 *  -1.08000    1.000000    
    573 O170  c    0.792087 *  0.235116 *  0.434399 *  -1.08000    1.000000    
    574 O170  c    0.618807 *  0.515009 *  0.431932 *  -1.08000    1.000000    
    575 O170  c    0.861852 *  0.296866 *  0.446113 *  -1.08000    1.000000    
    576 O170  c    0.557723 *  0.462541 *  0.445912 *  -1.08000    1.000000    
    577 O171  c    0.738625 *  0.385006 *  0.551640 *  -2.00000    1.000000    
    578 O171  c    0.239448 *  0.884875 *  0.552645 *  -2.00000    1.000000    
    579 O170  c    0.826557 *  0.246374 *  0.557878 *  -1.08000    1.000000    
    580 O170  c    0.584443 *  0.467698 *  0.545637 *  -1.08000    1.000000    
    581 O170  c    0.891257 *  0.301643 *  0.544631 *  -1.08000    1.000000    
    582 O170  c    0.652456 *  0.524066 *  0.558341 *  -1.08000    1.000000    
    583 O170  c    0.891564 *  0.468144 *  0.544679 *  -1.08000    1.000000    
    584 O170  c    0.584829 *  0.301974 *  0.545598 *  -1.08000    1.000000    
    585 O170  c    0.826325 *  0.523820 *  0.557812 *  -1.08000    1.000000    
    586 O170  c    0.652309 *  0.246025 *  0.558423 *  -1.08000    1.000000    
    587 O170  c    0.743050 *  0.441771 *  0.577146 *  -1.08000    1.000000    
    588 O170  c    0.197170 *  0.888123 *  0.639375 *  -1.08000    1.000000    
    589 O170  c    0.743129 *  0.328767 *  0.577222 *  -1.08000    1.000000    
    590 O170  c    0.321244 *  0.888095 *  0.638792 *  -1.08000    1.000000    
    591 O170  c    0.303640 *  0.885696 *  0.577916 *  -1.08000    1.000000    
    592 O170  c    0.762639 *  0.444357 *  0.637618 *  -1.08000    1.000000    
    593 O170  c    0.179409 *  0.885712 *  0.578405 *  -1.08000    1.000000    
    594 O170  c    0.762724 *  0.331259 *  0.637706 *  -1.08000    1.000000    
    595 O170  c    0.086125 *  0.801754 *  0.559421 *  -1.08000    1.000000    
    596 O170  c    0.325964 *  0.023986 *  0.545991 *  -1.08000    1.000000    
    597 O170  c    0.151662 *  0.746078 *  0.546328 *  -1.08000    1.000000    
    598 O170  c    0.393269 *  0.967929 *  0.558821 *  -1.08000    1.000000    
    599 O170  c    0.325908 *  0.745441 *  0.546287 *  -1.08000    1.000000    
    600 O170  c    0.151669 *  0.023441 *  0.546060 *  -1.08000    1.000000    
    601 O170  c    0.393568 *  0.802285 *  0.558969 *  -1.08000    1.000000    
    602 O170  c    0.086451 *  0.968552 *  0.559288 *  -1.08000    1.000000    
    603 O171  c    0.262590 *  0.888220 *  0.664737 *  -2.00000    1.000000    
    604 O171  c    0.763110 *  0.388203 *  0.663123 *  -2.00000    1.000000    
    605 O170  c    0.349985 *  0.748441 *  0.670633 *  -1.08000    1.000000    
    606 O170  c    0.109699 *  0.971132 *  0.658456 *  -1.08000    1.000000    
    607 O170  c    0.414694 *  0.805419 *  0.657595 *  -1.08000    1.000000    
    608 O170  c    0.175670 *  0.027424 *  0.671425 *  -1.08000    1.000000    
    609 O170  c    0.414674 *  0.971127 *  0.657603 *  -1.08000    1.000000    
    610 O170  c    0.109801 *  0.805281 *  0.658441 *  -1.08000    1.000000    
    611 O170  c    0.349935 *  0.028003 *  0.670649 *  -1.08000    1.000000    
    612 O170  c    0.175588 *  0.749057 *  0.671442 *  -1.08000    1.000000    
    613 O170  c    0.268167 *  0.944568 *  0.690302 *  -1.08000    1.000000    
    614 O173  c    0.698425 *  0.393574 *  0.748553 *  -0.69000    1.000000    
    615 O170  c    0.268360 *  0.831547 *  0.690345 *  -1.08000    1.000000    
    616 O172  c    0.827123 *  0.393303 *  0.748672 *  -0.69000    1.000000    
    617 H21   c    0.823424 *  0.394007 *  0.756990 *   0.22000    1.000000    
    618 O170  c    0.824618 *  0.388779 *  0.688670 *  -1.08000    1.000000    
    619 O173  c    0.293093 *  0.948367 *  0.750063 *  -0.69000    1.000000    
    620 O170  c    0.700339 *  0.389005 *  0.688619 *  -1.08000    1.000000    
    621 O172  c    0.293400 *  0.831164 *  0.750320 *  -0.69000    1.000000    
    622 H21   c    0.296966 *  0.834881 *  0.758616 *   0.22000    1.000000    
    623 O170  c    0.610402 *  0.305113 *  0.669737 *  -1.08000    1.000000    
    624 O170  c    0.850538 *  0.527808 *  0.656866 *  -1.08000    1.000000    
    625 O170  c    0.675821 *  0.248487 *  0.656749 *  -1.08000    1.000000    
    626 O170  c    0.915705 *  0.471055 *  0.669870 *  -1.08000    1.000000    
    627 O170  c    0.850469 *  0.248456 *  0.656982 *  -1.08000    1.000000    
    628 O170  c    0.675927 *  0.527909 *  0.656644 *  -1.08000    1.000000    
    629 O170  c    0.915705 *  0.305470 *  0.669944 *  -1.08000    1.000000    
    630 O170  c    0.610358 *  0.471430 *  0.669633 *  -1.08000    1.000000    
    631 C912  c    0.730877 *  0.412806 *  0.376132 *  -0.07025    1.000000    
    632 C912  c    0.115318 *  0.890666 *  0.393352 *  -0.07025    1.000000    
    633 C912  c    0.733245 *  0.291052 *  0.378828 *  -0.07025    1.000000    
    634 C912  c    0.249839 *  0.890135 *  0.391211 *  -0.07025    1.000000    
    635 C912  c    0.241306 *  0.893007 *  0.379351 *  -0.07025    1.000000    
    636 C912  c    0.725614 *  0.421766 *  0.388020 *  -0.07025    1.000000    
    637 C912  c    0.106799 *  0.893539 *  0.381466 *  -0.07025    1.000000    
    638 C912  c    0.727854 *  0.300040 *  0.390666 *  -0.07025    1.000000    
    639 C916  c    0.739957 *  0.334428 *  0.358549 *   1.07050    1.000000    
    640 C917  c    0.195002 *  0.884651 *  0.411112 *   1.07050    1.000000    
    641 C916  c    0.164333 *  0.896162 *  0.361500 *   1.07050    1.000000    
    642 C917  c    0.717795 *  0.373140 *  0.408320 *   1.07050    1.000000    
    643 C902  c    0.734578 *  0.347268 *  0.371531 *   0.00500    1.000000    
    644 C902  c    0.186626 *  0.888651 *  0.398136 *   0.00500    1.000000    
    645 C902  c    0.170165 *  0.894265 *  0.374535 *   0.00500    1.000000    
    646 C902  c    0.723947 *  0.365274 *  0.395264 *   0.00500    1.000000    
    647 C912  c    0.398639 *  0.628067 *  0.447163 *  -0.07025    1.000000    
    648 C912  c    0.942845 *  0.068730 *  0.435404 *  -0.07025    1.000000    
    649 C912  c    0.467584 *  0.682840 *  0.432036 *  -0.07025    1.000000    
    650 C912  c    0.021819 *  0.133200 *  0.448140 *  -0.07025    1.000000    
    651 C912  c    0.469080 *  0.073548 *  0.432902 *  -0.07025    1.000000    
    652 C912  c    0.946087 *  0.686240 *  0.433994 *  -0.07025    1.000000    
    653 C912  c    0.396766 *  0.128971 *  0.447596 *  -0.07025    1.000000    
    654 C912  c    0.020072 *  0.623298 *  0.447615 *  -0.07025    1.000000    
    655 C912  c    0.222923 *  0.941364 *  0.490886 *  -0.07025    1.000000    
    656 C912  c    0.658048 *  0.383578 *  0.502232 *  -0.07025    1.000000    
    657 C912  c    0.223346 *  0.818070 *  0.491314 *  -0.07025    1.000000    
    658 C912  c    0.792495 *  0.383649 *  0.500799 *  -0.07025    1.000000    
    659 C912  c    0.786802 *  0.382903 *  0.488836 *  -0.07025    1.000000    
    660 C912  c    0.227894 *  0.942940 *  0.502804 *  -0.07025    1.000000    
    661 C912  c    0.652353 *  0.382811 *  0.490266 *  -0.07025    1.000000    
    662 C912  c    0.228309 *  0.819645 *  0.503234 *  -0.07025    1.000000    
    663 C912  c    0.446147 *  0.184029 *  0.447546 *  -0.07025    1.000000    
    664 C912  c    0.895472 *  0.632319 *  0.433392 *  -0.07025    1.000000    
    665 C912  c    0.518390 *  0.128664 *  0.432836 *  -0.07025    1.000000    
    666 C912  c    0.969187 *  0.569573 *  0.447074 *  -0.07025    1.000000    
    667 C912  c    0.892676 *  0.122976 *  0.434981 *  -0.07025    1.000000    
    668 C912  c    0.517459 *  0.628075 *  0.431841 *  -0.07025    1.000000    
    669 C912  c    0.971496 *  0.187401 *  0.447746 *  -0.07025    1.000000    
    670 C912  c    0.448668 *  0.573491 *  0.447005 *  -0.07025    1.000000    
    671 C913  c    0.351211 *  0.743049 *  0.440121 *   1.07050    1.000000    
    672 C913  c    0.063912 *  0.014164 *  0.442380 *   1.07050    1.000000    
    673 C913  c    0.351892 *  0.013235 *  0.440611 *   1.07050    1.000000    
    674 C913  c    0.065086 *  0.741388 *  0.441706 *   1.07050    1.000000    
    675 C913  c    0.215305 *  0.877800 *  0.472242 *   1.07050    1.000000    
    676 C913  c    0.733091 *  0.384653 *  0.520672 *   1.07050    1.000000    
    677 C913  c    0.711977 *  0.381505 *  0.470394 *   1.07050    1.000000    
    678 C913  c    0.235474 *  0.883430 *  0.521881 *   1.07050    1.000000    
    679 C913  c    0.563615 *  0.244144 *  0.439912 *   1.07050    1.000000    
    680 C913  c    0.850302 *  0.514315 *  0.439351 *   1.07050    1.000000    
    681 C913  c    0.850489 *  0.241927 *  0.440550 *   1.07050    1.000000    
    682 C913  c    0.564765 *  0.512990 *  0.439072 *   1.07050    1.000000    
    683 C902  c    0.407542 *  0.683283 *  0.439712 *   0.00500    1.000000    
    684 C902  c    0.007879 *  0.073611 *  0.441963 *   0.00500    1.000000    
    685 C902  c    0.407696 *  0.073288 *  0.440307 *   0.00500    1.000000    
    686 C902  c    0.008838 *  0.682042 *  0.441090 *   0.00500    1.000000    
    687 C902  c    0.220680 *  0.878992 *  0.485245 *   0.00500    1.000000    
    688 C902  c    0.727997 *  0.383951 *  0.507507 *   0.00500    1.000000    
    689 C902  c    0.716864 *  0.382442 *  0.483559 *   0.00500    1.000000    
    690 C902  c    0.230442 *  0.882029 *  0.508875 *   0.00500    1.000000    
    691 C902  c    0.507588 *  0.184253 *  0.440153 *   0.00500    1.000000    
    692 C902  c    0.906554 *  0.573676 *  0.439951 *   0.00500    1.000000    
    693 C902  c    0.906626 *  0.182606 *  0.441137 *   0.00500    1.000000    
    694 C902  c    0.508677 *  0.572979 *  0.439331 *   0.00500    1.000000    
    695 C912  c    0.926168 *  0.135592 *  0.558873 *  -0.07025    1.000000    
    696 C912  c    0.474867 *  0.578971 *  0.545292 *  -0.07025    1.000000    
    697 C912  c    0.002487 *  0.189464 *  0.544496 *  -0.07025    1.000000    
    698 C912  c    0.552982 *  0.636034 *  0.559108 *  -0.07025    1.000000    
    699 C912  c    0.002909 *  0.580454 *  0.544648 *  -0.07025    1.000000    
    700 C912  c    0.475392 *  0.190862 *  0.545139 *  -0.07025    1.000000    
    701 C912  c    0.925614 *  0.634445 *  0.558891 *  -0.07025    1.000000    
    702 C912  c    0.552468 *  0.133861 *  0.559095 *  -0.07025    1.000000    
    703 C912  c    0.751292 *  0.447805 *  0.601366 *  -0.07025    1.000000    
    704 C912  c    0.184940 *  0.887243 *  0.615134 *  -0.07025    1.000000    
    705 C912  c    0.751409 *  0.324622 *  0.601535 *  -0.07025    1.000000    
    706 C912  c    0.319643 *  0.887199 *  0.614071 *  -0.07025    1.000000    
    707 C912  c    0.315433 *  0.886712 *  0.602101 *  -0.07025    1.000000    
    708 C912  c    0.755331 *  0.448419 *  0.613307 *  -0.07025    1.000000    
    709 C912  c    0.180730 *  0.886754 *  0.603162 *  -0.07025    1.000000    
    710 C912  c    0.755448 *  0.325237 *  0.613477 *  -0.07025    1.000000    
    711 C912  c    0.974855 *  0.689504 *  0.559424 *  -0.07025    1.000000    
    712 C912  c    0.425815 *  0.136041 *  0.545330 *  -0.07025    1.000000    
    713 C912  c    0.052240 *  0.635446 *  0.545199 *  -0.07025    1.000000    
    714 C912  c    0.502874 *  0.079049 *  0.559290 *  -0.07025    1.000000    
    715 C912  c    0.425412 *  0.633852 *  0.545557 *  -0.07025    1.000000    
    716 C912  c    0.051934 *  0.134519 *  0.544983 *  -0.07025    1.000000    
    717 C912  c    0.503555 *  0.690954 *  0.559365 *  -0.07025    1.000000    
    718 C912  c    0.975561 *  0.080624 *  0.559351 *  -0.07025    1.000000    
    719 C913  c    0.882835 *  0.250146 *  0.551207 *   1.07050    1.000000    
    720 C913  c    0.594855 *  0.519939 *  0.551954 *   1.07050    1.000000    
    721 C913  c    0.882904 *  0.519811 *  0.551210 *   1.07050    1.000000    
    722 C913  c    0.595010 *  0.249901 *  0.551963 *   1.07050    1.000000    
    723 C913  c    0.744829 *  0.385401 *  0.582511 *   1.07050    1.000000    
    724 C913  c    0.258113 *  0.887933 *  0.633725 *   1.07050    1.000000    
    725 C913  c    0.242449 *  0.885925 *  0.583509 *   1.07050    1.000000    
    726 C913  c    0.761258 *  0.387659 *  0.632340 *   1.07050    1.000000    
    727 C913  c    0.094919 *  0.750088 *  0.552895 *   1.07050    1.000000    
    728 C913  c    0.383210 *  0.020039 *  0.552461 *   1.07050    1.000000    
    729 C913  c    0.383425 *  0.749868 *  0.552684 *   1.07050    1.000000    
    730 C913  c    0.095177 *  0.019911 *  0.552690 *   1.07050    1.000000    
    731 C902  c    0.939019 *  0.190398 *  0.551467 *   0.00500    1.000000    
    732 C902  c    0.539113 *  0.579765 *  0.552082 *   0.00500    1.000000    
    733 C902  c    0.939023 *  0.579566 *  0.551524 *   0.00500    1.000000    
    734 C902  c    0.539198 *  0.190083 *  0.552033 *   0.00500    1.000000    
    735 C902  c    0.749311 *  0.385925 *  0.595559 *   0.00500    1.000000    
    736 C902  c    0.254304 *  0.887449 *  0.620577 *   0.00500    1.000000    
    737 C902  c    0.246078 *  0.886481 *  0.596657 *   0.00500    1.000000    
    738 C902  c    0.757265 *  0.387117 *  0.619286 *   0.00500    1.000000    
    739 C902  c    0.038799 *  0.690345 *  0.552562 *   0.00500    1.000000    
    740 C902  c    0.439070 *  0.079827 *  0.552395 *   0.00500    1.000000    
    741 C902  c    0.439284 *  0.690133 *  0.552578 *   0.00500    1.000000    
    742 C902  c    0.039067 *  0.079711 *  0.552390 *   0.00500    1.000000    
    743 C912  c    0.450663 *  0.636657 *  0.670694 *  -0.07025    1.000000    
    744 C912  c    0.000927 *  0.081582 *  0.657290 *  -0.07025    1.000000    
    745 C912  c    0.524946 *  0.694638 *  0.656513 *  -0.07025    1.000000    
    746 C912  c    0.075061 *  0.140309 *  0.671414 *  -0.07025    1.000000    
    747 C912  c    0.524946 *  0.081952 *  0.656572 *  -0.07025    1.000000    
    748 C912  c    0.001094 *  0.694858 *  0.657225 *  -0.07025    1.000000    
    749 C912  c    0.450554 *  0.139769 *  0.670760 *  -0.07025    1.000000    
    750 C912  c    0.074914 *  0.636122 *  0.671386 *  -0.07025    1.000000    
    751 C912  c    0.278036 *  0.949900 *  0.714663 *  -0.07025    1.000000    
    752 C912  c    0.695443 *  0.391506 *  0.725052 *  -0.07025    1.000000    
    753 C912  c    0.278254 *  0.826944 *  0.714718 *  -0.07025    1.000000    
    754 C912  c    0.830572 *  0.391217 *  0.724976 *  -0.07025    1.000000    
    755 C912  c    0.830151 *  0.390343 *  0.713001 *  -0.07025    1.000000    
    756 C912  c    0.283062 *  0.950112 *  0.726613 *  -0.07025    1.000000    
    757 C912  c    0.695144 *  0.390610 *  0.713077 *  -0.07025    1.000000    
    758 C912  c    0.283290 *  0.827045 *  0.726670 *  -0.07025    1.000000    
    759 C912  c    0.500438 *  0.194405 *  0.670693 *  -0.07025    1.000000    
    760 C912  c    0.951210 *  0.640266 *  0.656983 *  -0.07025    1.000000    
    761 C912  c    0.574972 *  0.136502 *  0.656533 *  -0.07025    1.000000    
    762 C912  c    0.024993 *  0.581535 *  0.671149 *  -0.07025    1.000000    
    763 C912  c    0.951056 *  0.136181 *  0.657077 *  -0.07025    1.000000    
    764 C912  c    0.574994 *  0.640098 *  0.656447 *  -0.07025    1.000000    
    765 C912  c    0.025170 *  0.194921 *  0.671201 *  -0.07025    1.000000    
    766 C912  c    0.500580 *  0.582048 *  0.670604 *  -0.07025    1.000000    
    767 C913  c    0.406033 *  0.752924 *  0.663920 *   1.07050    1.000000    
    768 C913  c    0.119253 *  0.023482 *  0.664776 *   1.07050    1.000000    
    769 C913  c    0.406006 *  0.023570 *  0.663941 *   1.07050    1.000000    
    770 C913  c    0.119279 *  0.752956 *  0.664770 *   1.07050    1.000000    
    771 C913  c    0.270345 *  0.888134 *  0.695659 *   1.07050    1.000000    
    772 C914  c    0.763030 *  0.393019 *  0.744089 *   1.07050    1.000000    
    773 C913  c    0.762393 *  0.389211 *  0.693972 *   1.07050    1.000000    
    774 C914  c    0.291315 *  0.889340 *  0.745677 *   1.07050    1.000000    
    775 C913  c    0.619426 *  0.252753 *  0.663392 *   1.07050    1.000000    
    776 C913  c    0.906651 *  0.523564 *  0.663571 *   1.07050    1.000000    
    777 C913  c    0.906655 *  0.252860 *  0.663668 *   1.07050    1.000000    
    778 C913  c    0.619498 *  0.523748 *  0.663283 *   1.07050    1.000000    
    779 C902  c    0.462298 *  0.693321 *  0.663662 *   0.00500    1.000000    
    780 C902  c    0.063405 *  0.083295 *  0.664466 *   0.00500    1.000000    
    781 C902  c    0.462256 *  0.083183 *  0.663711 *   0.00500    1.000000    
    782 C902  c    0.063426 *  0.693140 *  0.664433 *   0.00500    1.000000    
    783 C902  c    0.275692 *  0.888331 *  0.708755 *   0.00500    1.000000    
    784 C902  c    0.763137 *  0.391862 *  0.730968 *   0.00500    1.000000    
    785 C902  c    0.762502 *  0.390074 *  0.707092 *   0.00500    1.000000    
    786 C902  c    0.285712 *  0.888696 *  0.732584 *   0.00500    1.000000    
    787 C902  c    0.563219 *  0.193112 *  0.663577 *   0.00500    1.000000    
    788 C902  c    0.962663 *  0.583259 *  0.663938 *   0.00500    1.000000    
    789 C902  c    0.962689 *  0.193194 *  0.664022 *   0.00500    1.000000    
    790 C902  c    0.563316 *  0.583419 *  0.663478 *   0.00500    1.000000    
    791 H915  c    0.731962 *  0.456934 *  0.370425 *   0.11250    1.000000    
    792 H915  c    0.066718 *  0.889658 *  0.399059 *   0.11250    1.000000    
    793 H915  c    0.736124 *  0.239890 *  0.375138 *   0.11250    1.000000    
    794 H915  c    0.305185 *  0.888913 *  0.395190 *   0.11250    1.000000    
    795 H915  c    0.289838 *  0.894246 *  0.373646 *   0.11250    1.000000    
    796 H915  c    0.722549 *  0.472652 *  0.391803 *   0.11250    1.000000    
    797 H915  c    0.051359 *  0.894822 *  0.377524 *   0.11250    1.000000    
    798 H915  c    0.726512 *  0.256329 *  0.396499 *   0.11250    1.000000    
    799 H915  c    0.351619 *  0.628378 *  0.453180 *   0.11250    1.000000    
    800 H915  c    0.931986 *  0.022006 *  0.430571 *   0.11250    1.000000    
    801 H915  c    0.474999 *  0.725846 *  0.426170 *   0.11250    1.000000    
    802 H915  c    0.072885 *  0.136743 *  0.453276 *   0.11250    1.000000    
    803 H915  c    0.478018 *  0.030216 *  0.427156 *   0.11250    1.000000    
    804 H915  c    0.937368 *  0.732282 *  0.428878 *   0.11250    1.000000    
    805 H915  c    0.348563 *  0.128643 *  0.453386 *   0.11250    1.000000    
    806 H915  c    0.069257 *  0.620104 *  0.453177 *   0.11250    1.000000    
    807 H915  c    0.220734 *  0.988290 *  0.485833 *   0.11250    1.000000    
    808 H915  c    0.607998 *  0.383838 *  0.507635 *   0.11250    1.000000    
    809 H915  c    0.221491 *  0.769874 *  0.486614 *   0.11250    1.000000    
    810 H915  c    0.847074 *  0.383964 *  0.505030 *   0.11250    1.000000    
    811 H915  c    0.836852 *  0.382613 *  0.483432 *   0.11250    1.000000    
    812 H915  c    0.229703 *  0.991138 *  0.507503 *   0.11250    1.000000    
    813 H915  c    0.597773 *  0.382459 *  0.486036 *   0.11250    1.000000    
    814 H915  c    0.230449 *  0.772717 *  0.508286 *   0.11250    1.000000    
    815 H915  c    0.437219 *  0.227346 *  0.453294 *   0.11250    1.000000    
    816 H915  c    0.846338 *  0.635499 *  0.427820 *   0.11250    1.000000    
    817 H915  c    0.566571 *  0.128973 *  0.427042 *   0.11250    1.000000    
    818 H915  c    0.977871 *  0.523567 *  0.452200 *   0.11250    1.000000    
    819 H915  c    0.841693 *  0.119473 *  0.429823 *   0.11250    1.000000    
    820 H915  c    0.564494 *  0.627788 *  0.425828 *   0.11250    1.000000    
    821 H915  c    0.982409 *  0.234145 *  0.452569 *   0.11250    1.000000    
    822 H915  c    0.441331 *  0.530564 *  0.452890 *   0.11250    1.000000    
    823 H915  c    0.876329 *  0.136514 *  0.564321 *   0.11250    1.000000    
    824 H915  c    0.463834 *  0.534977 *  0.539782 *   0.11250    1.000000    
    825 H915  c    0.013021 *  0.232130 *  0.538673 *   0.11250    1.000000    
    826 H915  c    0.603485 *  0.636341 *  0.564410 *   0.11250    1.000000    
    827 H915  c    0.013882 *  0.537726 *  0.538858 *   0.11250    1.000000    
    828 H915  c    0.464825 *  0.234814 *  0.539598 *   0.11250    1.000000    
    829 H915  c    0.875416 *  0.633511 *  0.564261 *   0.11250    1.000000    
    830 H915  c    0.602590 *  0.133507 *  0.564483 *   0.11250    1.000000    
    831 H915  c    0.749597 *  0.495174 *  0.596429 *   0.11250    1.000000    
    832 H915  c    0.134279 *  0.887452 *  0.620400 *   0.11250    1.000000    
    833 H915  c    0.749807 *  0.276758 *  0.596738 *   0.11250    1.000000    
    834 H915  c    0.373664 *  0.887371 *  0.618469 *   0.11250    1.000000    
    835 H915  c    0.366092 *  0.886496 *  0.596833 *   0.11250    1.000000    
    836 H915  c    0.756870 *  0.496287 *  0.618105 *   0.11250    1.000000    
    837 H915  c    0.126709 *  0.886572 *  0.598763 *   0.11250    1.000000    
    838 H915  c    0.757080 *  0.277863 *  0.618413 *   0.11250    1.000000    
    839 H915  c    0.963872 *  0.732243 *  0.565212 *   0.11250    1.000000    
    840 H915  c    0.375698 *  0.136392 *  0.539942 *   0.11250    1.000000    
    841 H915  c    0.102458 *  0.636364 *  0.539834 *   0.11250    1.000000    
    842 H915  c    0.513441 *  0.035099 *  0.564831 *   0.11250    1.000000    
    843 H915  c    0.374904 *  0.633547 *  0.540256 *   0.11250    1.000000    
    844 H915  c    0.101786 *  0.133612 *  0.539537 *   0.11250    1.000000    
    845 H915  c    0.514600 *  0.734956 *  0.564872 *   0.11250    1.000000    
    846 H915  c    0.965026 *  0.037954 *  0.565173 *   0.11250    1.000000    
    847 H915  c    0.401485 *  0.635741 *  0.676283 *   0.11250    1.000000    
    848 H915  c    0.991651 *  0.036995 *  0.651840 *   0.11250    1.000000    
    849 H915  c    0.534350 *  0.738884 *  0.650989 *   0.11250    1.000000    
    850 H915  c    0.124101 *  0.141504 *  0.677030 *   0.11250    1.000000    
    851 H915  c    0.534407 *  0.037768 *  0.651036 *   0.11250    1.000000    
    852 H915  c    0.991953 *  0.739447 *  0.651770 *   0.11250    1.000000    
    853 H915  c    0.401339 *  0.140604 *  0.676341 *   0.11250    1.000000    
    854 H915  c    0.123834 *  0.634907 *  0.677026 *   0.11250    1.000000    
    855 H915  c    0.275926 *  0.997516 *  0.709796 *   0.11250    1.000000    
    856 H915  c    0.642989 *  0.391966 *  0.729894 *   0.11250    1.000000    
    857 H915  c    0.276311 *  0.779214 *  0.709880 *   0.11250    1.000000    
    858 H915  c    0.883382 *  0.391455 *  0.729718 *   0.11250    1.000000    
    859 H915  c    0.882340 *  0.389874 *  0.708099 *   0.11250    1.000000    
    860 H915  c    0.285000 *  0.998076 *  0.731392 *   0.11250    1.000000    
    861 H915  c    0.642652 *  0.390353 *  0.708253 *   0.11250    1.000000    
    862 H915  c    0.285388 *  0.779139 *  0.731456 *   0.11250    1.000000    
    863 H915  c    0.490963 *  0.238595 *  0.676227 *   0.11250    1.000000    
    864 H915  c    0.902299 *  0.641470 *  0.651341 *   0.11250    1.000000    
    865 H915  c    0.624227 *  0.135642 *  0.650960 *   0.11250    1.000000    
    866 H915  c    0.034144 *  0.536950 *  0.676604 *   0.11250    1.000000    
    867 H915  c    0.902017 *  0.134996 *  0.651460 *   0.11250    1.000000    
    868 H915  c    0.624205 *  0.641039 *  0.650865 *   0.11250    1.000000    
    869 H915  c    0.034460 *  0.239505 *  0.676651 *   0.11250    1.000000    
    870 H915  c    0.491166 *  0.537795 *  0.676126 *   0.11250    1.000000    
    871 Zn172 c    0.210056 *  0.792853 *  0.451256 *   2.00000    1.000000    
    872 Zn172 c    0.109453 *  0.878669 *  0.432849 *   2.00000    1.000000    
    873 Zn172 c    0.298273 *  0.878773 *  0.431147 *   2.00000    1.000000    
    874 Zn172 c    0.210099 *  0.963621 *  0.451294 *   2.00000    1.000000    
    875 Zn172 c    0.803411 *  0.379546 *  0.448898 *   2.00000    1.000000    
    876 Zn172 c    0.707965 *  0.461305 *  0.429000 *   2.00000    1.000000    
    877 Zn172 c    0.615400 *  0.379609 *  0.449412 *   2.00000    1.000000    
    878 Zn172 c    0.708094 *  0.291741 *  0.430077 *   2.00000    1.000000    
    879 Zn172 c    0.739974 *  0.300493 *  0.561439 *   2.00000    1.000000    
    880 Zn172 c    0.642724 *  0.384921 *  0.542254 *   2.00000    1.000000    
    881 Zn172 c    0.831810 *  0.384962 *  0.541471 *   2.00000    1.000000    
    882 Zn172 c    0.739941 *  0.469677 *  0.561372 *   2.00000    1.000000    
    883 Zn172 c    0.334887 *  0.885208 *  0.562157 *   2.00000    1.000000    
    884 Zn172 c    0.238800 *  0.969257 *  0.542799 *   2.00000    1.000000    
    885 Zn172 c    0.145467 *  0.885234 *  0.562598 *   2.00000    1.000000    
    886 Zn172 c    0.238841 *  0.799812 *  0.543033 *   2.00000    1.000000    
    887 Zn172 c    0.263840 *  0.803385 *  0.674487 *   2.00000    1.000000    
    888 Zn172 c    0.167346 *  0.888232 *  0.655227 *   2.00000    1.000000    
    889 Zn172 c    0.355677 *  0.888260 *  0.654574 *   2.00000    1.000000    
    890 Zn172 c    0.263806 *  0.973100 *  0.674484 *   2.00000    1.000000    
    891 Zn172 c    0.857204 *  0.388320 *  0.672925 *   2.00000    1.000000    
    892 Zn172 c    0.763364 *  0.473154 *  0.653365 *   2.00000    1.000000    
    893 Zn172 c    0.668459 *  0.388371 *  0.672822 *   2.00000    1.000000    
    894 Zn172 c    0.763335 *  0.302989 *  0.653455 *   2.00000    1.000000    
--------------------------------------------------------------------------------



  Molecule list generated from bond lengths :

  Total number of molecules =    22

--------------------------------------------------------------------------------
Molecule No./:  Atoms
Periodicity  :  
--------------------------------------------------------------------------------
     1  0    : O3   c   181 H22  c   182
     2  0    : O3   c   186 H22  c   187
     3  0    : O176 c   543 O176 c   545 O177 c   548 O177 c   550 C912 c   631
             : C912 c   633 C912 c   636 C912 c   638 C916 c   639 C917 c   642
             : C902 c   643 C902 c   646 H915 c   791 H915 c   793 H915 c   796
             : H915 c   798
     4  0    : O177 c   544 O177 c   546 O176 c   547 O176 c   549 C912 c   632
             : C912 c   634 C912 c   635 C912 c   637 C917 c   640 C916 c   641
             : C902 c   644 C902 c   645 H915 c   792 H915 c   794 H915 c   795
             : H915 c   797
     5  0    : O170 c   553 O170 c   555 O170 c   574 O170 c   576 C912 c   647
             : C912 c   649 C912 c   668 C912 c   670 C913 c   671 C913 c   682
             : C902 c   683 C902 c   694 H915 c   799 H915 c   801 H915 c   820
             : H915 c   822
     6  0    : O170 c   554 O170 c   556 O170 c   573 O170 c   575 C912 c   648
             : C912 c   650 C912 c   667 C912 c   669 C913 c   672 C913 c   681
             : C902 c   684 C902 c   693 H915 c   800 H915 c   802 H915 c   819
             : H915 c   821
     7  0    : O170 c   557 O170 c   559 O170 c   569 O170 c   571 C912 c   651
             : C912 c   653 C912 c   663 C912 c   665 C913 c   673 C913 c   679
             : C902 c   685 C902 c   691 H915 c   803 H915 c   805 H915 c   815
             : H915 c   817
     8  0    : O170 c   558 O170 c   560 O170 c   570 O170 c   572 C912 c   652
             : C912 c   654 C912 c   664 C912 c   666 C913 c   674 C913 c   680
             : C902 c   686 C902 c   692 H915 c   804 H915 c   806 H915 c   816
             : H915 c   818
     9  0    : O170 c   561 O170 c   563 O170 c   566 O170 c   568 C912 c   655
             : C912 c   657 C912 c   660 C912 c   662 C913 c   675 C913 c   678
             : C902 c   687 C902 c   690 H915 c   807 H915 c   809 H915 c   812
             : H915 c   814
    10  0    : O170 c   562 O170 c   564 O170 c   565 O170 c   567 C912 c   656
             : C912 c   658 C912 c   659 C912 c   661 C913 c   676 C913 c   677
             : C902 c   688 C902 c   689 H915 c   808 H915 c   810 H915 c   811
             : H915 c   813
    11  0    : O170 c   579 O170 c   581 O170 c   600 O170 c   602 C912 c   695
             : C912 c   697 C912 c   716 C912 c   718 C913 c   719 C913 c   730
             : C902 c   731 C902 c   742 H915 c   823 H915 c   825 H915 c   844
             : H915 c   846
    12  0    : O170 c   580 O170 c   582 O170 c   599 O170 c   601 C912 c   696
             : C912 c   698 C912 c   715 C912 c   717 C913 c   720 C913 c   729
             : C902 c   732 C902 c   741 H915 c   824 H915 c   826 H915 c   843
             : H915 c   845
    13  0    : O170 c   583 O170 c   585 O170 c   595 O170 c   597 C912 c   699
             : C912 c   701 C912 c   711 C912 c   713 C913 c   721 C913 c   727
             : C902 c   733 C902 c   739 H915 c   827 H915 c   829 H915 c   839
             : H915 c   841
    14  0    : O170 c   584 O170 c   586 O170 c   596 O170 c   598 C912 c   700
             : C912 c   702 C912 c   712 C912 c   714 C913 c   722 C913 c   728
             : C902 c   734 C902 c   740 H915 c   828 H915 c   830 H915 c   840
             : H915 c   842
    15  0    : O170 c   587 O170 c   589 O170 c   592 O170 c   594 C912 c   703
             : C912 c   705 C912 c   708 C912 c   710 C913 c   723 C913 c   726
             : C902 c   735 C902 c   738 H915 c   831 H915 c   833 H915 c   836
             : H915 c   838
    16  0    : O170 c   588 O170 c   590 O170 c   591 O170 c   593 C912 c   704
             : C912 c   706 C912 c   707 C912 c   709 C913 c   724 C913 c   725
             : C902 c   736 C902 c   737 H915 c   832 H915 c   834 H915 c   835
             : H915 c   837
    17  0    : O170 c   605 O170 c   607 O170 c   628 O170 c   630 C912 c   743
             : C912 c   745 C912 c   764 C912 c   766 C913 c   767 C913 c   778
             : C902 c   779 C902 c   790 H915 c   847 H915 c   849 H915 c   868
             : H915 c   870
    18  0    : O170 c   606 O170 c   608 O170 c   627 O170 c   629 C912 c   744
             : C912 c   746 C912 c   763 C912 c   765 C913 c   768 C913 c   777
             : C902 c   780 C902 c   789 H915 c   848 H915 c   850 H915 c   867
             : H915 c   869
    19  0    : O170 c   609 O170 c   611 O170 c   623 O170 c   625 C912 c   747
             : C912 c   749 C912 c   759 C912 c   761 C913 c   769 C913 c   775
             : C902 c   781 C902 c   787 H915 c   851 H915 c   853 H915 c   863
             : H915 c   865
    20  0    : O170 c   610 O170 c   612 O170 c   624 O170 c   626 C912 c   748
             : C912 c   750 C912 c   760 C912 c   762 C913 c   770 C913 c   776
             : C902 c   782 C902 c   788 H915 c   852 H915 c   854 H915 c   864
             : H915 c   866
    21  0    : O170 c   613 O170 c   615 O173 c   619 O172 c   621 H21  c   622
             : C912 c   751 C912 c   753 C912 c   756 C912 c   758 C913 c   771
[...]
   639 C916  c    -15.162335          -0.767657    2.371447    5.487740
   640 C917  c    -17.542235          -0.229943    0.545773   -6.846244
   641 C916  c    -16.873249           0.153279   -0.342622    6.112025
   642 C917  c    -17.381506           0.939487   -0.391285   -6.953426
   643 C902  c      2.129269           0.549422   -0.212907   -4.154984
   644 C902  c      1.148781           0.195483   -0.312936    3.743059
   645 C902  c      1.186083          -0.064729    0.157819   -3.877324
   646 C902  c      1.439901          -0.453735    0.389173    3.493298
   647 C912  c      1.056385          -1.041450    0.437535    0.549103
   648 C912  c      1.030078           0.255604   -1.194601   -0.448989
   649 C912  c      1.119173          -0.279471    1.174693   -0.537745
   650 C912  c      1.027122           1.088623   -0.402364    0.512093
   651 C912  c      1.048021          -0.268416   -1.189666   -0.498436
   652 C912  c      1.070038           0.272313    1.175706   -0.480134
   653 C912  c      1.019656          -1.045065   -0.433043    0.551454
   654 C912  c      1.051348           1.076359    0.413011    0.532424
   655 C912  c      1.043570           0.010367    0.689733   -1.049046
   656 C912  c      1.066800          -0.732018   -0.006560    1.047030
   657 C912  c      1.047755           0.011474   -0.693653   -1.051512
   658 C912  c      1.063405           0.722590   -0.004307    1.050607
   659 C912  c      1.065612           0.728661    0.007383   -1.049413
   660 C912  c      1.047187          -0.012443    0.691039    1.054300
   661 C912  c      1.069688          -0.726369    0.004946   -1.055484
   662 C912  c      1.048835          -0.011536   -0.692634    1.053053
   663 C912  c      1.063882           0.281879    1.192790    0.513687
   664 C912  c      1.062951          -1.083710   -0.423041   -0.538925
   665 C912  c      1.021519           1.059957    0.440976   -0.536792
   666 C912  c      1.076689          -0.281373   -1.184572    0.480737
   667 C912  c      1.010737          -1.086111    0.416833   -0.491868
   668 C912  c      1.098605           1.058885   -0.436946   -0.580198
   669 C912  c      1.064709          -0.259894    1.213330    0.471979
   670 C912  c      1.088775           0.293804   -1.169194    0.509016
   671 C913  c    -17.508147           4.710788   -5.336776   -0.402578
   672 C913  c    -17.548707          -4.686963    5.339715   -0.276648
   673 C913  c    -17.544115           4.674964    5.356341   -0.403372
   674 C913  c    -17.524545          -4.701833   -5.334233   -0.318628
   675 C913  c    -17.481235          -0.066869   -0.020770    6.878432
   676 C913  c    -17.479537           0.005046    0.042338   -6.985619
   677 C913  c    -17.477495          -0.044131   -0.035629    7.000041
   678 C913  c    -17.480629           0.087355   -0.002799   -6.895740
   679 C913  c    -17.498684          -4.661420   -5.346573    0.358139
   680 C913  c    -17.493012           4.690062    5.326895    0.327912
   681 C913  c    -17.511871           4.733364   -5.276708    0.392668
   682 C913  c    -17.477653          -4.644257    5.380648    0.288559
   683 C902  c      1.202135          -2.272609    2.715071    0.081884
   684 C902  c      1.156044           2.304972   -2.718653    0.079625
   685 C902  c      1.155123          -2.261702   -2.737799    0.096094
   686 C902  c      1.184528           2.312236    2.701881    0.096864
   687 C902  c      1.255384           0.033540    0.000516   -3.741273
   688 C902  c      1.223947          -0.009332   -0.020722    3.630697
   689 C902  c      1.228630           0.012680    0.017534   -3.633766
   690 C902  c      1.259758          -0.045037    0.001307    3.744190
   691 C902  c      1.174253           2.282371    2.740139   -0.068189
   692 C902  c      1.200444          -2.316686   -2.710658   -0.103919
   693 C902  c      1.174297          -2.303487    2.735760   -0.087416
   694 C902  c      1.213893           2.289748   -2.711997   -0.086144
   695 C912  c      1.029189          -1.059013    0.445578    0.471911
   696 C912  c      1.084975           0.249434   -1.188265   -0.559916
   697 C912  c      1.085108          -0.251194    1.186964   -0.562446
   698 C912  c      1.029464           1.061831   -0.443081    0.467411
   699 C912  c      1.084960          -0.250195   -1.187460   -0.561037
   700 C912  c      1.084675           0.250223    1.187781   -0.560442
   701 C912  c      1.029420          -1.059634   -0.445048    0.470826
   702 C912  c      1.029267           1.061506    0.443346    0.468661
   703 C912  c      1.058576           0.000678    0.699653   -1.051557
   704 C912  c      1.057698          -0.720100   -0.000463    1.050273
   705 C912  c      1.058769           0.000686   -0.699969   -1.051665
   706 C912  c      1.057450           0.718925   -0.000187    1.050833
   707 C912  c      1.057560           0.719890    0.000253   -1.050387
   708 C912  c      1.059792          -0.000575    0.699679    1.053329
   709 C912  c      1.057724          -0.719086   -0.000013   -1.051011
   710 C912  c      1.059856          -0.000608   -0.699658    1.053395
   711 C912  c      1.085093           0.250091    1.187498    0.561020
   712 C912  c      1.028830          -1.061351   -0.443128   -0.468257
   713 C912  c      1.029187           1.059728    0.444927   -0.470265
   714 C912  c      1.084749          -0.249865   -1.187751    0.560399
   715 C912  c      1.028657          -1.061143    0.442890   -0.467029
   716 C912  c      1.029364           1.059624   -0.445223   -0.471459
   717 C912  c      1.085278          -0.248762    1.188666    0.559670
   718 C912  c      1.084661           0.251264   -1.186355    0.562421
   719 C913  c    -17.514414           4.755716   -5.288381   -0.085083
   720 C913  c    -17.515100          -4.759399    5.284579   -0.072701
   721 C913  c    -17.515190           4.753352    5.290396   -0.082798
   722 C913  c    -17.514821          -4.760569   -5.283773   -0.075458
   723 C913  c    -17.478346          -0.004711   -0.001290    6.925307
   724 C913  c    -17.487200           0.002277    0.001647   -6.971904
   725 C913  c    -17.479566          -0.003576   -0.001180    6.957241
   726 C913  c    -17.465827           0.004115   -0.001148   -6.910454
   727 C913  c    -17.515144          -4.754865   -5.290857    0.082173
   728 C913  c    -17.516372           4.762093    5.285380    0.076091
   729 C913  c    -17.516636           4.763023   -5.284406    0.078556
   730 C913  c    -17.515146          -4.754781    5.291580    0.078223
   731 C902  c      1.183082          -2.258179    2.749208   -0.118888
   732 C902  c      1.183395           2.260179   -2.748210   -0.123420
   733 C902  c      1.183231          -2.257844   -2.749978   -0.119108
   734 C902  c      1.183012           2.260654    2.747416   -0.121933
   735 C902  c      1.257816           0.002492   -0.000026   -3.718188
   736 C902  c      1.227970          -0.001698   -0.000913    3.655191
   737 C902  c      1.228360           0.001734    0.000472   -3.655757
   738 C902  c      1.260590          -0.002134    0.000412    3.720617
   739 C902  c      1.183330           2.258171    2.749998    0.119452
   740 C902  c      1.182690          -2.260055   -2.747627    0.121638
   741 C902  c      1.183008          -2.259051    2.748942    0.121765
   742 C902  c      1.182920           2.258849   -2.748575    0.120539
   743 C912  c      1.038770          -1.064817    0.432666    0.517645
   744 C912  c      1.075129           0.269155   -1.186823   -0.512463
   745 C912  c      1.075978          -0.269300    1.186744   -0.511125
   746 C912  c      1.036260           1.064121   -0.432160    0.515551
   747 C912  c      1.072458          -0.270036   -1.186345   -0.513763
   748 C912  c      1.078712           0.269240    1.186392   -0.510782
   749 C912  c      1.032028          -1.064459   -0.433484    0.515395
   750 C912  c      1.043728           1.063804    0.431970    0.519283
   751 C912  c      1.207304           0.003643    0.643961   -0.961020
   752 C912  c      1.415359          -0.525468    0.018227    1.283531
   753 C912  c      1.259491           0.005577   -0.682894   -0.924408
   754 C912  c      1.548312           0.612683    0.017193    1.379437
   755 C912  c      1.256562           0.682945   -0.006335   -0.920311
   756 C912  c      1.413421          -0.014892    0.524438    1.281990
   757 C912  c      1.205212          -0.643953   -0.004313   -0.956915
   758 C912  c      1.547732          -0.013813   -0.613829    1.377687
   759 C912  c      1.067091           0.271853    1.187185    0.506665
   760 C912  c      1.044630          -1.065195   -0.431636   -0.518633
   761 C912  c      1.038426           1.064958    0.432463   -0.521814
   762 C912  c      1.079019          -0.270772   -1.186596    0.510916
   763 C912  c      1.040881          -1.065597    0.431790   -0.519274
   764 C912  c      1.042087           1.065565   -0.431558   -0.520189
   765 C912  c      1.072445          -0.271188    1.187735    0.508609
   766 C912  c      1.072910           0.270724   -1.186530    0.507525
   767 C913  c    -17.511232           4.702104   -5.325797   -0.279567
   768 C913  c    -17.512918          -4.706243    5.322742   -0.275084
   769 C913  c    -17.513790           4.702254    5.325132   -0.274475
   770 C913  c    -17.510080          -4.704612   -5.325062   -0.278741
   771 C913  c    -17.430556          -0.048924    0.009627    6.973032
   772 C914  c    -14.309576           0.588783   -0.053634   -4.514468
   773 C913  c    -17.442977          -0.010321    0.058834    6.964187
   774 C914  c    -14.312505           0.044230   -0.587209   -4.515103
   775 C913  c    -17.511752          -4.705929   -5.323718    0.284035
   776 C913  c    -17.508335           4.707839    5.324951    0.278703
   777 C913  c    -17.509926           4.708575   -5.322381    0.278340
   778 C913  c    -17.510569          -4.704887    5.326406    0.281769
   779 C902  c      1.185064          -2.286305    2.731687    0.033705
   780 C902  c      1.183412           2.286288   -2.731630    0.029605
   781 C902  c      1.180583          -2.286993   -2.732053    0.029547
   782 C902  c      1.188157           2.285424    2.731057    0.033618
   783 C902  c      1.374754           0.022782   -0.020097   -3.602169
   784 C902  c      2.112114           0.084366    0.055235    4.378181
   785 C902  c      1.368652           0.021032   -0.027129   -3.595898
   786 C902  c      2.109924          -0.044975   -0.087027    4.377246
   787 C902  c      1.181882           2.287375    2.732973   -0.037368
   788 C902  c      1.189500          -2.286944   -2.731093   -0.032568
   789 C902  c      1.185265          -2.287483    2.732297   -0.033205
   790 C902  c      1.185781           2.287233   -2.731726   -0.036445
   791 H915  c     -0.538982           0.096987    0.632171   -0.618600
   792 H915  c     -2.056660          -0.559045    0.010982   -0.212632
   793 H915  c     -1.663009          -0.012780   -0.260579    0.203061
   794 H915  c     -1.911991           0.588624   -0.033871   -0.319288
   795 H915  c     -1.755120           0.772336   -0.152245    0.095333
   796 H915  c     -1.467193           0.034894    0.535504   -0.422663
   797 H915  c     -1.992165          -0.565981   -0.014443    0.103095
   798 H915  c     -1.859839           0.059933   -0.497608   -0.283161
   799 H915  c     -1.894764          -0.105194   -0.465456    0.376337
   800 H915  c     -1.879328          -0.419050   -0.125786   -0.329631
   801 H915  c     -1.757495           0.378577    0.109734   -0.402996
   802 H915  c     -1.906718           0.139091    0.475489    0.352361
   803 H915  c     -1.838877           0.380832   -0.130269   -0.362516
   804 H915  c     -1.839181          -0.410886    0.107904   -0.358397
   805 H915  c     -1.925950          -0.111035    0.476183    0.380225
   806 H915  c     -1.884073           0.129287   -0.462120    0.357568
   807 H915  c     -1.926299          -0.002122    0.546664    0.284730
   808 H915  c     -1.868447          -0.534815    0.001239   -0.238115
   809 H915  c     -1.916550          -0.000866   -0.546151    0.276551
   810 H915  c     -1.875872           0.536623    0.002877   -0.241069
   811 H915  c     -1.872292           0.535709    0.001327    0.242729
   812 H915  c     -1.918556           0.003912    0.546138   -0.278238
   813 H915  c     -1.862688          -0.536405   -0.000487    0.230673
   814 H915  c     -1.915895           0.004629   -0.547101   -0.278270
   815 H915  c     -1.815765          -0.374951    0.129191    0.372975
   816 H915  c     -1.861220          -0.138667    0.452177   -0.365538
   817 H915  c     -1.920085           0.127860   -0.456990   -0.364374
   818 H915  c     -1.823974           0.400115   -0.118038    0.363925
   819 H915  c     -1.939405          -0.136423   -0.483646   -0.337197
   820 H915  c     -1.816420           0.121276    0.443848   -0.402318
   821 H915  c     -1.814984           0.392730    0.146277    0.349036
   822 H915  c     -1.812826          -0.383843   -0.106206    0.376060
   823 H915  c     -1.934539          -0.117582   -0.494721    0.391235
   824 H915  c     -1.785771          -0.375398   -0.132789   -0.349749
   825 H915  c     -1.785141           0.372978    0.132137   -0.352072
   826 H915  c     -1.934349           0.119099    0.496210    0.389364
   827 H915  c     -1.785722           0.374174   -0.131866   -0.351540
   828 H915  c     -1.786042          -0.374808    0.132826   -0.350081
   829 H915  c     -1.934302          -0.118234    0.495217    0.390522
   830 H915  c     -1.934288           0.118766   -0.495557    0.389693
   831 H915  c     -1.901221          -0.000233    0.544111    0.271334
   832 H915  c     -1.885362          -0.537831   -0.000186   -0.247970
   833 H915  c     -1.900660          -0.000200   -0.543896    0.270620
   834 H915  c     -1.885874           0.538055    0.000031   -0.247818
   835 H915  c     -1.885462           0.537579    0.000053    0.246904
   836 H915  c     -1.899058           0.000282    0.543191   -0.268340
   837 H915  c     -1.885149          -0.537914   -0.000158    0.246349
   838 H915  c     -1.898858           0.000242   -0.543097   -0.267928
   839 H915  c     -1.785663          -0.374160    0.131676    0.351421
   840 H915  c     -1.935209          -0.118217    0.495730   -0.389450
   841 H915  c     -1.934946           0.117988   -0.495341   -0.389899
   842 H915  c     -1.786037           0.374907   -0.132318    0.350444
   843 H915  c     -1.936211          -0.118037   -0.497595   -0.389201
   844 H915  c     -1.934123           0.117873    0.493631   -0.390541
   845 H915  c     -1.785161           0.374890    0.133002    0.349771
   846 H915  c     -1.786330          -0.373923   -0.130932    0.352198
   847 H915  c     -1.907771          -0.124027   -0.469385    0.368717
   848 H915  c     -1.811993          -0.387364   -0.123396   -0.362079
   849 H915  c     -1.811802           0.387573    0.122845   -0.362261
   850 H915  c     -1.912469           0.122289    0.469956    0.367244
   851 H915  c     -1.814442           0.387365   -0.122744   -0.363481
   852 H915  c     -1.809564          -0.387256    0.122763   -0.361556
   853 H915  c     -1.916263          -0.124192    0.467346    0.365498
   854 H915  c     -1.902872           0.121755   -0.470996    0.371398
   855 H915  c     -1.831321          -0.005093    0.489114    0.292581
   856 H915  c     -1.665331          -0.247559    0.002406   -0.164698
   857 H915  c     -1.777579          -0.003847   -0.503902    0.333865
   858 H915  c     -1.390407           0.268516    0.004120    0.039997
   859 H915  c     -1.782690           0.503725    0.004793    0.337286
   860 H915  c     -1.668622          -0.001960    0.246825   -0.165765
   861 H915  c     -1.835458          -0.490404    0.006120    0.297281
   862 H915  c     -1.391180          -0.003293   -0.269168    0.038581
   863 H915  c     -1.823719          -0.381566    0.124729    0.355394
   864 H915  c     -1.901170          -0.122718    0.472558   -0.371361
   865 H915  c     -1.905895           0.122858   -0.472550   -0.373160
   866 H915  c     -1.809601           0.383978   -0.122389    0.361572
   867 H915  c     -1.904215          -0.122984   -0.472808   -0.372228
   868 H915  c     -1.902662           0.123360    0.472512   -0.371600
   869 H915  c     -1.816502           0.382720    0.124929    0.358205
   870 H915  c     -1.817949          -0.383831   -0.122414    0.357786
   871 Zn172 c    -20.921615          -0.013727   -0.398658    0.014370
   872 Zn172 c    -20.794108          -0.511589   -0.052100    0.286188
   873 Zn172 c    -20.689384           0.565961   -0.063368    0.181611
   874 Zn172 c    -20.935681          -0.008459    0.346366   -0.013093
   875 Zn172 c    -20.632590           0.400096   -0.022949   -0.063747
   876 Zn172 c    -20.720368          -0.068217    0.184117   -0.283690
   877 Zn172 c    -20.627170          -0.468544   -0.015875   -0.024329
   878 Zn172 c    -20.888458          -0.096024   -0.349465   -0.134623
   879 Zn172 c    -20.975628           0.000095   -0.244651    0.081241
   880 Zn172 c    -20.568193          -0.516381   -0.003380    0.074760
   881 Zn172 c    -20.571237           0.527117   -0.005757    0.079891
   882 Zn172 c    -20.976358           0.000601    0.242635    0.079819
   883 Zn172 c    -20.585986           0.544779   -0.000844   -0.124653
   884 Zn172 c    -20.993691          -0.008286    0.273023   -0.035624
   885 Zn172 c    -20.588133          -0.547874    0.000064   -0.120972
   886 Zn172 c    -20.996434          -0.009169   -0.267775   -0.034578
   887 Zn172 c    -20.885215           0.002923   -0.275711    0.125772
   888 Zn172 c    -20.645120          -0.476047    0.000639    0.100513
   889 Zn172 c    -20.646843           0.476014    0.000567    0.099881
   890 Zn172 c    -20.891236           0.004521    0.281712    0.115672
   891 Zn172 c    -20.659679           0.507228   -0.003400   -0.139386
   892 Zn172 c    -20.908414          -0.001240    0.308168   -0.050954
   893 Zn172 c    -20.665707          -0.513255   -0.005511   -0.149465
   894 Zn172 c    -20.909705          -0.001299   -0.307178   -0.052347
-------------------------------------------------------------------------------

  Total time to end of lattice properties =    4781.2000 s


  Peak dynamic memory used =     148.21 MB 


  Timing analysis for GULP :

--------------------------------------------------------------------------------
  Task / Subroutine                                          Time (Seconds)
--------------------------------------------------------------------------------
  Calculation of reciprocal space energy and derivatives        391.0393
  Calculation of real space energy and derivatives              268.0244
  Calculation of three-body energy and derivatives                0.7382
  Calculation of four-body energy and derivatives                 0.8196
  Calculation of molecules and connectivity                       0.3483
  Calculation of phonons                                         52.0103
  Calculation of scattering                                       0.0000
  Symmetry generation of equivalent positions                     0.0118
  Global summation overhead                                       0.0007
--------------------------------------------------------------------------------
  Total CPU time                                               4781.2002
--------------------------------------------------------------------------------


  Dump file written as fit1.res                                                


  Job Finished at 22:18.53 19th May        2016                               

