********************************************************************************
*                       GENERAL UTILITY LATTICE PROGRAM                        *
*                                 Julian Gale                                  *
*                      Nanochemistry Research Institute                        *
*                           Department of Chemistry                            *
*                    Curtin University, Western Australia                      *
********************************************************************************
* Version = 4.4.0 * Last modified = 31st March 2015                            *
********************************************************************************
*  noenergy     - perform a single point run but do not calculate the energy   *
*  conv         - constant volume calculation                                  *
*  qok          - running with non charge neutral cell is OK                   *
*  property     - calculate properties for final geometry                      *
*  phonon       - calculate phonons for final geometry                         *
*  potential    - calculate electrostatic site potentials                      *
*  molmec       - molecule option activated, Coulomb subtract 1-2/1-3 terms    *
*  fix_molecule - fix atoms of molecule as at the start of the run             *
********************************************************************************

  Job Started  at 12:06.58 27th May        2016                               

  Number of CPUs =     1


  Total number of configurations input =   1

********************************************************************************
*  Input for Configuration =   1                                               *
********************************************************************************

  Formula = O34H34C64Zn8                                                

  Number of irreducible atoms/shells =     140


  Total number atoms/shells =     140

  Dimensionality = 3               :  Bulk   


  Charge on solid   =  -2.000000 =>neutralising background added


  Cartesian lattice vectors (Angstroms) :

       17.724000    0.000000    0.000000
        0.000000   19.461000    0.000000
        0.000000    0.000000  114.868000

  Cell parameters (Angstroms/Degrees):

  a =      17.7240    alpha =  90.0000
  b =      19.4610    beta  =  90.0000
  c =     114.8680    gamma =  90.0000

  Initial cell volume =       39621.047527 Angs**3

  Temperature of configuration =  0.000     K 

  Pressure of configuration =         0.000 GPa 

  Fractional coordinates of asymmetric unit :

--------------------------------------------------------------------------------
   No.  Atomic       x           y          z         Charge      Occupancy
        Label      (Frac)      (Frac)     (Frac)        (e)         (Frac)  
--------------------------------------------------------------------------------
      1 O176  c    0.894087    0.528296    0.355316    -1.08000    1.000000    
      2 O170  c    0.145675    0.938630    0.416738    -1.08000    1.000000    
      3 O176  c    0.895090    0.416309    0.351144    -1.08000    1.000000    
      4 O170  c    0.269012    0.933298    0.414547    -1.08000    1.000000    
      5 O176  c    0.217103    0.893512    0.355641    -1.08000    1.000000    
      6 O170  c    0.758872    0.495524    0.410925    -1.08000    1.000000    
      7 O176  c    0.092366    0.898573    0.356326    -1.08000    1.000000    
      8 O170  c    0.754100    0.382636    0.410001    -1.08000    1.000000    
      9 O171  c    0.224849    0.939432    0.440909    -2.00000    1.000000    
     10 O171  c    0.725882    0.439169    0.435494    -2.00000    1.000000    
     11 O170  c    0.316168    0.799319    0.445898    -1.08000    1.000000    
     12 O170  c    0.070818    0.022395    0.436169    -1.08000    1.000000    
     13 O170  c    0.374196    0.856260    0.432149    -1.08000    1.000000    
     14 O170  c    0.141666    0.082582    0.447940    -1.08000    1.000000    
     15 O170  c    0.372687    0.022184    0.431616    -1.08000    1.000000    
     16 O170  c    0.070127    0.857159    0.436275    -1.08000    1.000000    
     17 O170  c    0.316254    0.079110    0.445532    -1.08000    1.000000    
     18 O170  c    0.141655    0.796685    0.447915    -1.08000    1.000000    
     19 O170  c    0.237839    0.996691    0.466184    -1.08000    1.000000    
     20 O173  c    0.640702    0.430378    0.520586    -0.69000    1.000000    
     21 O170  c    0.236638    0.883449    0.466227    -1.08000    1.000000    
     22 O172  c    0.769261    0.429703    0.521513    -0.69000    1.000000    
     23 H21   c    0.763366    0.428636    0.529799     0.22000    1.000000    
     24 O170  c    0.781743    0.437011    0.461450    -1.08000    1.000000    
     25 O172  c    0.260779    0.998728    0.526160    -0.69000    1.000000    
     26 H21   c    0.263871    0.995257    0.534465     0.22000    1.000000    
     27 O170  c    0.657640    0.437684    0.460780    -1.08000    1.000000    
     28 O173  c    0.259455    0.881528    0.526013    -0.69000    1.000000    
     29 O170  c    0.574737    0.354973    0.441332    -1.08000    1.000000    
     30 O170  c    0.808511    0.584965    0.431809    -1.08000    1.000000    
     31 O170  c    0.636122    0.302449    0.427410    -1.08000    1.000000    
     32 O170  c    0.876449    0.521397    0.443495    -1.08000    1.000000    
     33 O170  c    0.809541    0.295220    0.431144    -1.08000    1.000000    
     34 O170  c    0.636175    0.576329    0.427663    -1.08000    1.000000    
     35 O170  c    0.877401    0.357448    0.443061    -1.08000    1.000000    
     36 O170  c    0.574870    0.522386    0.441440    -1.08000    1.000000    
     37 C912  c    0.844580    0.513561    0.377472    -0.07025    1.000000    
     38 C912  c    0.117579    0.925756    0.393326    -0.07025    1.000000    
     39 C912  c    0.840524    0.391591    0.375369    -0.07025    1.000000    
     40 C912  c    0.251097    0.919274    0.390191    -0.07025    1.000000    
     41 C912  c    0.238285    0.911160    0.378500    -0.07025    1.000000    
     42 C912  c    0.816239    0.507969    0.388580    -0.07025    1.000000    
     43 C912  c    0.104751    0.918069    0.381589    -0.07025    1.000000    
     44 C912  c    0.812905    0.386013    0.386587    -0.07025    1.000000    
     45 C916  c    0.884172    0.466291    0.358385     1.07050    1.000000    
     46 C913  c    0.203164    0.933347    0.410391     1.07050    1.000000    
     47 C916  c    0.156204    0.900348    0.361375     1.07050    1.000000    
     48 C913  c    0.768810    0.440075    0.405445     1.07050    1.000000    
     49 C902  c    0.855906    0.455716    0.370752     0.00500    1.000000    
     50 C902  c    0.190440    0.925976    0.397545     0.00500    1.000000    
     51 C902  c    0.165593    0.910268    0.374255     0.00500    1.000000    
     52 C902  c    0.800173    0.444276    0.393171     0.00500    1.000000    
     53 C912  c    0.417526    0.686577    0.444447    -0.07025    1.000000    
     54 C912  c    0.963235    0.129023    0.433935    -0.07025    1.000000    
     55 C912  c    0.483431    0.745541    0.429467    -0.07025    1.000000    
     56 C912  c    0.037749    0.196975    0.446765    -0.07025    1.000000    
     57 C912  c    0.482625    0.133046    0.428905    -0.07025    1.000000    
     58 C912  c    0.961896    0.750379    0.434342    -0.07025    1.000000    
     59 C912  c    0.417565    0.191153    0.444069    -0.07025    1.000000    
     60 C912  c    0.037741    0.682633    0.447013    -0.07025    1.000000    
     61 C912  c    0.247365    0.001850    0.490533    -0.07025    1.000000    
     62 C912  c    0.643860    0.433568    0.497100    -0.07025    1.000000    
     63 C912  c    0.246066    0.878908    0.490596    -0.07025    1.000000    
     64 C912  c    0.778894    0.432875    0.497844    -0.07025    1.000000    
     65 C912  c    0.781560    0.434300    0.485876    -0.07025    1.000000    
     66 C912  c    0.251939    0.002120    0.502490    -0.07025    1.000000    
     67 C912  c    0.646649    0.435018    0.485135    -0.07025    1.000000    
     68 C912  c    0.250632    0.879068    0.502551    -0.07025    1.000000    
     69 C912  c    0.467652    0.245476    0.443249    -0.07025    1.000000    
     70 C912  c    0.910797    0.697029    0.433424    -0.07025    1.000000    
     71 C912  c    0.533023    0.187321    0.428122    -0.07025    1.000000    
     72 C912  c    0.986388    0.629334    0.446138    -0.07025    1.000000    
     73 C912  c    0.912166    0.182301    0.432858    -0.07025    1.000000    
     74 C912  c    0.533595    0.691151    0.428611    -0.07025    1.000000    
     75 C912  c    0.986286    0.250085    0.445767    -0.07025    1.000000    
     76 C912  c    0.467519    0.632183    0.443574    -0.07025    1.000000    
     77 C913  c    0.368707    0.803611    0.438521     1.07050    1.000000    
     78 C913  c    0.083091    0.076955    0.441776     1.07050    1.000000    
     79 C913  c    0.368079    0.074734    0.438035     1.07050    1.000000    
     80 C913  c    0.082611    0.802571    0.441868     1.07050    1.000000    
     81 C913  c    0.239339    0.940120    0.471522     1.07050    1.000000    
     82 C914  c    0.706436    0.430671    0.516531     1.07050    1.000000    
     83 C913  c    0.718471    0.436790    0.466447     1.07050    1.000000    
     84 C914  c    0.258433    0.940417    0.521569     1.07050    1.000000    
     85 C913  c    0.582191    0.304147    0.434590     1.07050    1.000000    
     86 C913  c    0.865939    0.577248    0.438156     1.07050    1.000000    
     87 C913  c    0.866718    0.302122    0.437580     1.07050    1.000000    
     88 C913  c    0.582233    0.573849    0.434835     1.07050    1.000000    
     89 C902  c    0.424854    0.743855    0.437417     0.00500    1.000000    
     90 C902  c    0.026593    0.136033    0.440839     0.00500    1.000000    
     91 C902  c    0.424426    0.134327    0.436926     0.00500    1.000000    
     92 C902  c    0.025959    0.743509    0.441088     0.00500    1.000000    
     93 C902  c    0.244423    0.940289    0.484624     0.00500    1.000000    
     94 C902  c    0.709975    0.432442    0.503423     0.00500    1.000000    
     95 C902  c    0.715472    0.435333    0.479561     0.00500    1.000000    
     96 C902  c    0.253526    0.940660    0.508467     0.00500    1.000000    
     97 C902  c    0.526192    0.244065    0.435307     0.00500    1.000000    
     98 C902  c    0.922674    0.636044    0.439293     0.00500    1.000000    
     99 C902  c    0.923279    0.243251    0.438771     0.00500    1.000000    
    100 C902  c    0.526308    0.633938    0.435674     0.00500    1.000000    
    101 H915  c    0.857110    0.563607    0.373825     0.11250    1.000000    
    102 H915  c    0.071169    0.931581    0.399376     0.11250    1.000000    
    103 H915  c    0.849218    0.345931    0.370172     0.11250    1.000000    
    104 H915  c    0.307771    0.920021    0.393706     0.11250    1.000000    
    105 H915  c    0.284809    0.905659    0.372474     0.11250    1.000000    
    106 H915  c    0.806384    0.553228    0.393852     0.11250    1.000000    
    107 H915  c    0.047992    0.917749    0.378115     0.11250    1.000000    
    108 H915  c    0.800087    0.336211    0.390295     0.11250    1.000000    
    109 H915  c    0.371723    0.684959    0.450677     0.11250    1.000000    
    110 H915  c    0.954587    0.081223    0.429301     0.11250    1.000000    
    111 H915  c    0.489635    0.790160    0.423921     0.11250    1.000000    
    112 H915  c    0.087294    0.202507    0.452196     0.11250    1.000000    
    113 H915  c    0.488457    0.088819    0.423260     0.11250    1.000000    
    114 H915  c    0.952638    0.798127    0.429721     0.11250    1.000000    
    115 H915  c    0.372011    0.192460    0.450344     0.11250    1.000000    
    116 H915  c    0.087842    0.677241    0.452326     0.11250    1.000000    
    117 H915  c    0.245997    0.049433    0.485650     0.11250    1.000000    
    118 H915  c    0.590203    0.433268    0.501618     0.11250    1.000000    
    119 H915  c    0.243696    0.831138    0.485775     0.11250    1.000000    
    120 H915  c    0.830444    0.432032    0.502904     0.11250    1.000000    
    121 H915  c    0.834975    0.434612    0.481299     0.11250    1.000000    
    122 H915  c    0.254264    0.050174    0.507231     0.11250    1.000000    
    123 H915  c    0.595443    0.435880    0.479995     0.11250    1.000000    
    124 H915  c    0.251954    0.831252    0.507377     0.11250    1.000000    
    125 H915  c    0.461879    0.289705    0.448895     0.11250    1.000000    
    126 H915  c    0.860774    0.702338    0.428090     0.11250    1.000000    
    127 H915  c    0.578645    0.185880    0.421861     0.11250    1.000000    
    128 H915  c    0.995712    0.581585    0.450754     0.11250    1.000000    
    129 H915  c    0.862739    0.176842    0.427398     0.11250    1.000000    
    130 H915  c    0.579473    0.692878    0.422396     0.11250    1.000000    
    131 H915  c    0.994968    0.297878    0.450401     0.11250    1.000000    
    132 H915  c    0.461386    0.587606    0.449131     0.11250    1.000000    
    133 Zn172 c    0.230125    0.853699    0.450503     2.00000    1.000000    
    134 Zn172 c    0.125345    0.939793    0.432689     2.00000    1.000000    
    135 Zn172 c    0.312890    0.938581    0.429713     2.00000    1.000000    
    136 Zn172 c    0.230505    0.025455    0.450403     2.00000    1.000000    
    137 Zn172 c    0.817892    0.438642    0.445855     2.00000    1.000000    
    138 Zn172 c    0.729501    0.525093    0.426108     2.00000    1.000000    
    139 Zn172 c    0.630465    0.438446    0.444765     2.00000    1.000000    
    140 Zn172 c    0.728918    0.354100    0.425593     2.00000    1.000000    
--------------------------------------------------------------------------------



  Molecule list generated from bond lengths :

  Total number of molecules =     8

--------------------------------------------------------------------------------
Molecule No./:  Atoms
Periodicity  :  
--------------------------------------------------------------------------------
     1  0    : O176 c     1 O176 c     3 O170 c     6 O170 c     8 C912 c    37
             : C912 c    39 C912 c    42 C912 c    44 C916 c    45 C913 c    48
             : C902 c    49 C902 c    52 H915 c   101 H915 c   103 H915 c   106
             : H915 c   108
     2  0    : O170 c     2 O170 c     4 O176 c     5 O176 c     7 C912 c    38
             : C912 c    40 C912 c    41 C912 c    43 C913 c    46 C916 c    47
             : C902 c    50 C902 c    51 H915 c   102 H915 c   104 H915 c   105
             : H915 c   107
     3  0    : O170 c    11 O170 c    13 O170 c    34 O170 c    36 C912 c    53
             : C912 c    55 C912 c    74 C912 c    76 C913 c    77 C913 c    88
             : C902 c    89 C902 c   100 H915 c   109 H915 c   111 H915 c   130
             : H915 c   132
     4  0    : O170 c    12 O170 c    14 O170 c    33 O170 c    35 C912 c    54
             : C912 c    56 C912 c    73 C912 c    75 C913 c    78 C913 c    87
             : C902 c    90 C902 c    99 H915 c   110 H915 c   112 H915 c   129
             : H915 c   131
     5  0    : O170 c    15 O170 c    17 O170 c    29 O170 c    31 C912 c    57
             : C912 c    59 C912 c    69 C912 c    71 C913 c    79 C913 c    85
             : C902 c    91 C902 c    97 H915 c   113 H915 c   115 H915 c   125
             : H915 c   127
     6  0    : O170 c    16 O170 c    18 O170 c    30 O170 c    32 C912 c    58
             : C912 c    60 C912 c    70 C912 c    72 C913 c    80 C913 c    86
             : C902 c    92 C902 c    98 H915 c   114 H915 c   116 H915 c   126
             : H915 c   128
     7  0    : O170 c    19 O170 c    21 O172 c    25 H21  c    26 O173 c    28
             : C912 c    61 C912 c    63 C912 c    66 C912 c    68 C913 c    81
             : C914 c    84 C902 c    93 C902 c    96 H915 c   117 H915 c   119
             : H915 c   122 H915 c   124
     8  0    : O173 c    20 O172 c    22 H21  c    23 O170 c    24 O170 c    27
             : C912 c    62 C912 c    64 C912 c    65 C912 c    67 C914 c    82
             : C913 c    83 C902 c    94 C902 c    95 H915 c   118 H915 c   120
             : H915 c   121 H915 c   123
--------------------------------------------------------------------------------


********************************************************************************
*  General input information                                                   *
********************************************************************************

  Species output for all configurations : 

--------------------------------------------------------------------------------
  Species    Type    Atomic    Atomic    Charge       Radii (Angs)     Library
                     Number     Mass       (e)     Cova   Ionic  VDW   Symbol
--------------------------------------------------------------------------------
    C913     Core        6      12.01   1.070500   0.770  0.000  1.530          
    O170     Core        8      16.00  -1.080000   0.730  0.000  1.360          
    O172     Core        8      16.00  -0.690000   0.730  0.000  1.360          
    O173     Core        8      16.00  -0.690000   0.730  0.000  1.360          
    C914     Core        6      12.01   1.070500   0.770  0.000  1.530          
    O175     Core        8      16.00  -1.080000   0.730  0.000  1.360          
    C915     Core        6      12.01   1.070500   0.770  0.000  1.530          
    C917     Core        6      12.01   1.070500   0.770  0.000  1.530          
    O177     Core        8      16.00  -1.080000   0.730  0.000  1.360          
    O176     Core        8      16.00  -1.080000   0.730  0.000  1.360          
    C916     Core        6      12.01   1.070500   0.770  0.000  1.530          
    C902     Core        6      12.01   0.005000   0.770  0.000  1.530          
    H915     Core        1       1.01   0.112500   0.370  0.000  1.080          
    C912     Core        6      12.01  -0.070250   0.770  0.000  1.530          
    H21      Core        1       1.01   0.220000   0.370  0.000  1.080          
    H22      Core        1       1.01   0.120000   0.370  0.000  1.080          
    O2       Core        8      16.00  -1.218000   0.730  0.000  1.360          
    Ti       Core       22      47.88   2.436000   0.000  0.000  2.190          
    O3       Core        8      16.00  -0.338000   0.730  0.000  1.360          
    Zn172    Core       30      65.39   2.000000   0.000  0.000  2.160          
    O171     Core        8      16.00  -2.000000   0.730  0.000  1.360          
--------------------------------------------------------------------------------


  Lattice summation method               =    Ewald          (3-D)
                                         =    Parry          (2-D)
                                         =    Saunders et al (1-D)
  Accuracy factor for lattice sums       =   12.000


  Time limit = Infinity

  Maximum range for interatomic potentials =    100000.000000 Angstroms

  General interatomic potentials :

--------------------------------------------------------------------------------
Atom  Types   Potential      Parameter       Value         Units   Cutoffs(Ang)
  1     2                                                            Min /  Max 
--------------------------------------------------------------------------------
O175 c Zn172c MM3buck       MM3buck A        184000.00    None      3Bond 12.000
                            MM3buck B        11.500000    None      
                            MM3buck C        2.5500000    None      
                            MM3buck epsilon 0.31250271E-02eV        
                            MM3buck rv       3.9595000    Ang       
--------------------------------------------------------------------------------
O176 c Zn172c MM3buck       MM3buck A        184000.00    None      3Bond 12.000
                            MM3buck B        11.500000    None      
                            MM3buck C        2.5500000    None      
                            MM3buck epsilon 0.31250271E-02eV        
                            MM3buck rv       3.9595000    Ang       
--------------------------------------------------------------------------------
O177 c Zn172c MM3buck       MM3buck A        184000.00    None      3Bond 12.000
                            MM3buck B        11.500000    None      
                            MM3buck C        2.5500000    None      
                            MM3buck epsilon 0.31250271E-02eV        
                            MM3buck rv       3.9595000    Ang       
--------------------------------------------------------------------------------
O170 c Zn172c MM3buck       MM3buck A        184000.00    None      3Bond 12.000
                            MM3buck B        11.500000    None      
                            MM3buck C        2.5500000    None      
                            MM3buck epsilon 0.31250271E-02eV        
                            MM3buck rv       3.9595000    Ang       
--------------------------------------------------------------------------------
O171 c Zn172c MM3buck       MM3buck A        184000.00    None      3Bond 12.000
                            MM3buck B        11.500000    None      
                            MM3buck C        2.5500000    None      
                            MM3buck epsilon 0.55956611E-02eV        
                            MM3buck rv       3.7332600    Ang       
--------------------------------------------------------------------------------
O3   c Ti   c MM3buck       MM3buck A        184000.00    None      3Bond 12.000
                            MM3buck B        11.500000    None      
                            MM3buck C        2.5500000    None      
                            MM3buck epsilon 0.44016176E-02eV        
                            MM3buck rv       3.0441150    Ang       
--------------------------------------------------------------------------------
O2   c Ti   c MM3buck       MM3buck A        184000.00    None      3Bond 12.000
                            MM3buck B        11.500000    None      
                            MM3buck C        2.5500000    None      
                            MM3buck epsilon 0.12586926E-01eV        
                            MM3buck rv       3.0441150    Ang       
--------------------------------------------------------------------------------
O3   c O3   c MM3buck       MM3buck A        184000.00    None      3Bond 12.000
                            MM3buck B        11.500000    None      
                            MM3buck C        2.5500000    None      
                            MM3buck epsilon 0.10031500E-02eV        
                            MM3buck rv       3.1875200    Ang       
--------------------------------------------------------------------------------
O2   c O2   c MM3buck       MM3buck A        184000.00    None      3Bond 12.000
                            MM3buck B        11.500000    None      
                            MM3buck C        2.5500000    None      
                            MM3buck epsilon 0.82031500E-02eV        
                            MM3buck rv       3.1875200    Ang       
--------------------------------------------------------------------------------
O2   c O172 c MM3buck       MM3buck A        184000.00    None      3Bond  0.000
                            MM3buck B        11.500000    None      
                            MM3buck C        2.5500000    None      
                            MM3buck epsilon 0.45812399E-02eV        
                            MM3buck rv       3.4137600    Ang       
--------------------------------------------------------------------------------
O2   c O173 c MM3buck       MM3buck A        184000.00    None      3Bond  0.000
                            MM3buck B        11.500000    None      
                            MM3buck C        2.5500000    None      
                            MM3buck epsilon 0.45812399E-02eV        
                            MM3buck rv       3.4137600    Ang       
--------------------------------------------------------------------------------
O2   c O170 c MM3buck       MM3buck A        184000.00    None      3Bond 12.000
                            MM3buck B        11.500000    None      
                            MM3buck C        2.5500000    None      
                            MM3buck epsilon 0.45812399E-02eV        
                            MM3buck rv       3.4137600    Ang       
--------------------------------------------------------------------------------
O3   c O172 c MM3buck       MM3buck A        184000.00    None      3Bond  0.000
                            MM3buck B        11.500000    None      
                            MM3buck C        2.5500000    None      
                            MM3buck epsilon 0.16020485E-02eV        
                            MM3buck rv       3.4137600    Ang       
--------------------------------------------------------------------------------
O3   c O173 c MM3buck       MM3buck A        184000.00    None      3Bond  0.000
                            MM3buck B        11.500000    None      
                            MM3buck C        2.5500000    None      
                            MM3buck epsilon 0.16020485E-02eV        
                            MM3buck rv       3.4137600    Ang       
--------------------------------------------------------------------------------
O3   c O170 c MM3buck       MM3buck A        184000.00    None      3Bond 12.000
                            MM3buck B        11.500000    None      
                            MM3buck C        2.5500000    None      
                            MM3buck epsilon 0.16020485E-02eV        
                            MM3buck rv       3.4137600    Ang       
--------------------------------------------------------------------------------
O3   c O175 c MM3buck       MM3buck A        184000.00    None      3Bond 12.000
                            MM3buck B        11.500000    None      
                            MM3buck C        2.5500000    None      
                            MM3buck epsilon 0.16020485E-02eV        
                            MM3buck rv       3.4137600    Ang       
--------------------------------------------------------------------------------
O2   c O175 c MM3buck       MM3buck A        184000.00    None      3Bond 12.000
                            MM3buck B        11.500000    None      
                            MM3buck C        2.5500000    None      
                            MM3buck epsilon 0.45812399E-02eV        
                            MM3buck rv       3.4137600    Ang       
--------------------------------------------------------------------------------
O3   c O176 c MM3buck       MM3buck A        184000.00    None      3Bond 12.000
                            MM3buck B        11.500000    None      
                            MM3buck C        2.5500000    None      
                            MM3buck epsilon 0.16020485E-02eV        
                            MM3buck rv       3.4137600    Ang       
--------------------------------------------------------------------------------
O2   c O176 c MM3buck       MM3buck A        184000.00    None      3Bond 12.000
                            MM3buck B        11.500000    None      
                            MM3buck C        2.5500000    None      
                            MM3buck epsilon 0.45812399E-02eV        
                            MM3buck rv       3.4137600    Ang       
--------------------------------------------------------------------------------
O3   c O177 c MM3buck       MM3buck A        184000.00    None      3Bond 12.000
                            MM3buck B        11.500000    None      
                            MM3buck C        2.5500000    None      
                            MM3buck epsilon 0.16020485E-02eV        
                            MM3buck rv       3.4137600    Ang       
--------------------------------------------------------------------------------
O2   c O177 c MM3buck       MM3buck A        184000.00    None      3Bond 12.000
                            MM3buck B        11.500000    None      
                            MM3buck C        2.5500000    None      
                            MM3buck epsilon 0.45812399E-02eV        
                            MM3buck rv       3.4137600    Ang       
--------------------------------------------------------------------------------
O172 c Ti   c MM3buck       MM3buck A        184000.00    None      3Bond 12.000
                            MM3buck B        11.500000    None      
                            MM3buck C        2.5500000    None      
                            MM3buck epsilon 0.70294618E-02eV        
                            MM3buck rv       3.2703550    Ang       
--------------------------------------------------------------------------------
O170 c Ti   c MM3buck       MM3buck A        184000.00    None      3Bond 12.000
                            MM3buck B        11.500000    None      
                            MM3buck C        2.5500000    None      
                            MM3buck epsilon 0.70294618E-02eV        
                            MM3buck rv       3.2703550    Ang       
--------------------------------------------------------------------------------
O173 c Ti   c MM3buck       MM3buck A        184000.00    None      3Bond 12.000
                            MM3buck B        11.500000    None      
                            MM3buck C        2.5500000    None      
                            MM3buck epsilon 0.70294618E-02eV        
                            MM3buck rv       3.2703550    Ang       
--------------------------------------------------------------------------------
O175 c Ti   c MM3buck       MM3buck A        184000.00    None      3Bond 12.000
                            MM3buck B        11.500000    None      
                            MM3buck C        2.5500000    None      
                            MM3buck epsilon 0.70294618E-02eV        
                            MM3buck rv       3.2703550    Ang       
--------------------------------------------------------------------------------
O176 c Ti   c MM3buck       MM3buck A        184000.00    None      3Bond 12.000
                            MM3buck B        11.500000    None      
                            MM3buck C        2.5500000    None      
                            MM3buck epsilon 0.70294618E-02eV        
                            MM3buck rv       3.2703550    Ang       
--------------------------------------------------------------------------------
O177 c Ti   c MM3buck       MM3buck A        184000.00    None      3Bond 12.000
                            MM3buck B        11.500000    None      
                            MM3buck C        2.5500000    None      
                            MM3buck epsilon 0.70294618E-02eV        
                            MM3buck rv       3.2703550    Ang       
--------------------------------------------------------------------------------
Ti   c Ti   c MM3buck       MM3buck A        184000.00    None      3Bond 12.000
                            MM3buck B        11.500000    None      
                            MM3buck C        2.5500000    None      
                            MM3buck epsilon 0.19313400E-01eV        
                            MM3buck rv       2.9007100    Ang       
--------------------------------------------------------------------------------
Ti3  c Ti3  c MM3buck       MM3buck A        184000.00    None      3Bond 12.000
                            MM3buck B        11.500000    None      
                            MM3buck C        2.5500000    None      
                            MM3buck epsilon 0.19313400E-01eV        
                            MM3buck rv       2.9007100    Ang       
--------------------------------------------------------------------------------
C916 c O3   c Lenn/es       Lennard epsilon  0.0000000    eV        3Bond 12.500
                            Lennard sigma/m  0.0000000    Ang       
                            Exponent m        12          None
                            Exponent n         6          None
--------------------------------------------------------------------------------
C917 c O3   c Lenn/es       Lennard epsilon  0.0000000    eV        3Bond 12.500
                            Lennard sigma/m  0.0000000    Ang       
                            Exponent m        12          None
                            Exponent n         6          None
--------------------------------------------------------------------------------
O3   c O175 c Lenn/es       Lennard epsilon  0.0000000    eV        3Bond 12.500
                            Lennard sigma/m  0.0000000    Ang       
                            Exponent m        12          None
                            Exponent n         6          None
--------------------------------------------------------------------------------
C915 c O3   c Lenn/es       Lennard epsilon  0.0000000    eV        3Bond 12.500
                            Lennard sigma/m  0.0000000    Ang       
                            Exponent m        12          None
                            Exponent n         6          None
--------------------------------------------------------------------------------
C902 c O3   c Lenn/es       Lennard epsilon  0.0000000    eV        3Bond 12.500
                            Lennard sigma/m  0.0000000    Ang       
                            Exponent m        12          None
                            Exponent n         6          None
--------------------------------------------------------------------------------
C914 c O3   c Lenn/es       Lennard epsilon  0.0000000    eV        3Bond 12.500
                            Lennard sigma/m  0.0000000    Ang       
                            Exponent m        12          None
                            Exponent n         6          None
--------------------------------------------------------------------------------
C913 c O3   c Lenn/es       Lennard epsilon  0.0000000    eV        3Bond 12.500
                            Lennard sigma/m  0.0000000    Ang       
                            Exponent m        12          None
                            Exponent n         6          None
--------------------------------------------------------------------------------
C912 c O3   c Lenn/es       Lennard epsilon  0.0000000    eV        3Bond 12.500
                            Lennard sigma/m  0.0000000    Ang       
                            Exponent m        12          None
                            Exponent n         6          None
--------------------------------------------------------------------------------
H915 c O3   c Lenn/es       Lennard epsilon  0.0000000    eV        3Bond 12.500
                            Lennard sigma/m  0.0000000    Ang       
                            Exponent m        12          None
                            Exponent n         6          None
--------------------------------------------------------------------------------
H21  c O3   c Lenn/es       Lennard epsilon  0.0000000    eV        3Bond 12.500
                            Lennard sigma/m  0.0000000    Ang       
                            Exponent m        12          None
                            Exponent n         6          None
--------------------------------------------------------------------------------
C916 c O2   c Lenn/es       Lennard epsilon  0.0000000    eV        3Bond 12.500
                            Lennard sigma/m  0.0000000    Ang       
                            Exponent m        12          None
                            Exponent n         6          None
--------------------------------------------------------------------------------
C917 c O2   c Lenn/es       Lennard epsilon  0.0000000    eV        3Bond 12.500
                            Lennard sigma/m  0.0000000    Ang       
                            Exponent m        12          None
                            Exponent n         6          None
--------------------------------------------------------------------------------
C915 c O2   c Lenn/es       Lennard epsilon  0.0000000    eV        3Bond 12.500
                            Lennard sigma/m  0.0000000    Ang       
                            Exponent m        12          None
                            Exponent n         6          None
--------------------------------------------------------------------------------
C902 c O2   c Lenn/es       Lennard epsilon  0.0000000    eV        3Bond 12.500
                            Lennard sigma/m  0.0000000    Ang       
                            Exponent m        12          None
                            Exponent n         6          None
--------------------------------------------------------------------------------
C914 c O2   c Lenn/es       Lennard epsilon  0.0000000    eV        3Bond 12.500
                            Lennard sigma/m  0.0000000    Ang       
                            Exponent m        12          None
                            Exponent n         6          None
--------------------------------------------------------------------------------
C913 c O2   c Lenn/es       Lennard epsilon  0.0000000    eV        3Bond 12.500
                            Lennard sigma/m  0.0000000    Ang       
                            Exponent m        12          None
                            Exponent n         6          None
--------------------------------------------------------------------------------
C912 c O2   c Lenn/es       Lennard epsilon  0.0000000    eV        3Bond 12.500
                            Lennard sigma/m  0.0000000    Ang       
                            Exponent m        12          None
                            Exponent n         6          None
--------------------------------------------------------------------------------
H915 c O2   c Lenn/es       Lennard epsilon  0.0000000    eV        3Bond 12.500
                            Lennard sigma/m  0.0000000    Ang       
                            Exponent m        12          None
                            Exponent n         6          None
--------------------------------------------------------------------------------
H21  c O2   c Lenn/es       Lennard epsilon  0.0000000    eV        3Bond 12.500
                            Lennard sigma/m  0.0000000    Ang       
                            Exponent m        12          None
                            Exponent n         6          None
--------------------------------------------------------------------------------
H22  c O176 c Lenn/es       Lennard epsilon 0.32179843E-02eV        3Bond 12.500
                            Lennard sigma/m 0.96225000    Ang       
                            Exponent m        12          None
                            Exponent n         6          None
--------------------------------------------------------------------------------
H22  c O177 c Lenn/es       Lennard epsilon 0.32179843E-02eV        3Bond 12.500
                            Lennard sigma/m 0.96225000    Ang       
                            Exponent m        12          None
                            Exponent n         6          None
--------------------------------------------------------------------------------
H22  c O175 c Lenn/es       Lennard epsilon 0.32179843E-02eV        3Bond 12.500
                            Lennard sigma/m 0.96225000    Ang       
                            Exponent m        12          None
                            Exponent n         6          None
--------------------------------------------------------------------------------
H22  c C916 c Lenn/es       Lennard epsilon 0.24577764E-02eV        3Bond 12.500
                            Lennard sigma/m  1.1122500    Ang       
                            Exponent m        12          None
                            Exponent n         6          None
--------------------------------------------------------------------------------
H22  c C917 c Lenn/es       Lennard epsilon 0.24577764E-02eV        3Bond 12.500
                            Lennard sigma/m  1.1122500    Ang       
                            Exponent m        12          None
                            Exponent n         6          None
--------------------------------------------------------------------------------
H22  c C915 c Lenn/es       Lennard epsilon 0.24577764E-02eV        3Bond 12.500
                            Lennard sigma/m  1.1122500    Ang       
                            Exponent m        12          None
                            Exponent n         6          None
--------------------------------------------------------------------------------
O176 c O176 c Lenn/es       Lennard epsilon 0.52037300E-02eV        3Bond 12.500
                            Lennard sigma/m  1.7000000    Ang       
                            Exponent m        12          None
                            Exponent n         6          None
--------------------------------------------------------------------------------
O176 c O177 c Lenn/es       Lennard epsilon 0.52037300E-02eV        3Bond 12.500
                            Lennard sigma/m  1.7000000    Ang       
                            Exponent m        12          None
                            Exponent n         6          None
--------------------------------------------------------------------------------
C916 c O176 c Lenn/es       Lennard epsilon 0.39744150E-02eV        3Bond 12.500
                            Lennard sigma/m  1.8500000    Ang       
                            Exponent m        12          None
                            Exponent n         6          None
--------------------------------------------------------------------------------
C917 c O176 c Lenn/es       Lennard epsilon 0.39744150E-02eV        3Bond 12.500
                            Lennard sigma/m  1.8500000    Ang       
                            Exponent m        12          None
                            Exponent n         6          None
--------------------------------------------------------------------------------
O175 c O176 c Lenn/es       Lennard epsilon 0.52037300E-02eV        3Bond 12.500
                            Lennard sigma/m  1.7000000    Ang       
                            Exponent m        12          None
                            Exponent n         6          None
--------------------------------------------------------------------------------
C915 c O176 c Lenn/es       Lennard epsilon 0.39744150E-02eV        3Bond 12.500
                            Lennard sigma/m  1.8500000    Ang       
                            Exponent m        12          None
                            Exponent n         6          None
--------------------------------------------------------------------------------
C902 c O176 c Lenn/es       Lennard epsilon 0.39744150E-02eV        3Bond 12.500
                            Lennard sigma/m  1.8462000    Ang       
                            Exponent m        12          None
                            Exponent n         6          None
--------------------------------------------------------------------------------
C914 c O176 c Lenn/es       Lennard epsilon 0.39744150E-02eV        3Bond 12.500
                            Lennard sigma/m  1.8500000    Ang       
                            Exponent m        12          None
                            Exponent n         6          None
--------------------------------------------------------------------------------
C913 c O176 c Lenn/es       Lennard epsilon 0.39744150E-02eV        3Bond 12.500
                            Lennard sigma/m  1.8500000    Ang       
                            Exponent m        12          None
                            Exponent n         6          None
--------------------------------------------------------------------------------
C912 c O176 c Lenn/es       Lennard epsilon 0.39744150E-02eV        3Bond 12.500
                            Lennard sigma/m  1.8462000    Ang       
                            Exponent m        12          None
                            Exponent n         6          None
--------------------------------------------------------------------------------
H915 c O176 c Lenn/es       Lennard epsilon 0.26018625E-02eV        3Bond 12.500
                            Lennard sigma/m  1.5291000    Ang       
                            Exponent m        12          None
                            Exponent n         6          None
--------------------------------------------------------------------------------
O172 c O176 c Lenn/es       Lennard epsilon 0.52037300E-02eV        3Bond 12.500
                            Lennard sigma/m  1.7000000    Ang       
                            Exponent m        12          None
                            Exponent n         6          None
--------------------------------------------------------------------------------
O170 c O176 c Lenn/es       Lennard epsilon 0.52037300E-02eV        3Bond 12.500
                            Lennard sigma/m  1.7000000    Ang       
                            Exponent m        12          None
                            Exponent n         6          None
--------------------------------------------------------------------------------
O173 c O176 c Lenn/es       Lennard epsilon 0.52037300E-02eV        3Bond 12.500
                            Lennard sigma/m  1.7000000    Ang       
                            Exponent m        12          None
                            Exponent n         6          None
--------------------------------------------------------------------------------
H21  c O176 c Lenn/es       Lennard epsilon 0.32179843E-02eV        3Bond 12.500
                            Lennard sigma/m 0.96225000    Ang       
                            Exponent m        12          None
                            Exponent n         6          None
--------------------------------------------------------------------------------
O177 c O177 c Lenn/es       Lennard epsilon 0.52037300E-02eV        3Bond 12.500
                            Lennard sigma/m  1.7000000    Ang       
                            Exponent m        12          None
                            Exponent n         6          None
--------------------------------------------------------------------------------
C916 c O177 c Lenn/es       Lennard epsilon 0.39744150E-02eV        3Bond 12.500
                            Lennard sigma/m  1.8500000    Ang       
                            Exponent m        12          None
                            Exponent n         6          None
--------------------------------------------------------------------------------
C917 c O177 c Lenn/es       Lennard epsilon 0.39744150E-02eV        3Bond 12.500
                            Lennard sigma/m  1.8500000    Ang       
                            Exponent m        12          None
                            Exponent n         6          None
--------------------------------------------------------------------------------
O175 c O177 c Lenn/es       Lennard epsilon 0.52037300E-02eV        3Bond 12.500
                            Lennard sigma/m  1.7000000    Ang       
                            Exponent m        12          None
                            Exponent n         6          None
--------------------------------------------------------------------------------
C915 c O177 c Lenn/es       Lennard epsilon 0.39744150E-02eV        3Bond 12.500
                            Lennard sigma/m  1.8500000    Ang       
                            Exponent m        12          None
                            Exponent n         6          None
--------------------------------------------------------------------------------
C902 c O177 c Lenn/es       Lennard epsilon 0.39744150E-02eV        3Bond 12.500
                            Lennard sigma/m  1.8462000    Ang       
                            Exponent m        12          None
                            Exponent n         6          None
--------------------------------------------------------------------------------
C914 c O177 c Lenn/es       Lennard epsilon 0.39744150E-02eV        3Bond 12.500
                            Lennard sigma/m  1.8500000    Ang       
                            Exponent m        12          None
                            Exponent n         6          None
--------------------------------------------------------------------------------
C913 c O177 c Lenn/es       Lennard epsilon 0.39744150E-02eV        3Bond 12.500
                            Lennard sigma/m  1.8500000    Ang       
                            Exponent m        12          None
                            Exponent n         6          None
--------------------------------------------------------------------------------
C912 c O177 c Lenn/es       Lennard epsilon 0.39744150E-02eV        3Bond 12.500
                            Lennard sigma/m  1.8462000    Ang       
                            Exponent m        12          None
                            Exponent n         6          None
--------------------------------------------------------------------------------
H915 c O177 c Lenn/es       Lennard epsilon 0.26018625E-02eV        3Bond 12.500
                            Lennard sigma/m  1.5291000    Ang       
                            Exponent m        12          None
                            Exponent n         6          None
--------------------------------------------------------------------------------
O172 c O177 c Lenn/es       Lennard epsilon 0.52037300E-02eV        3Bond 12.500
                            Lennard sigma/m  1.7000000    Ang       
                            Exponent m        12          None
                            Exponent n         6          None
--------------------------------------------------------------------------------
O170 c O177 c Lenn/es       Lennard epsilon 0.52037300E-02eV        3Bond 12.500
                            Lennard sigma/m  1.7000000    Ang       
                            Exponent m        12          None
                            Exponent n         6          None
--------------------------------------------------------------------------------
O173 c O177 c Lenn/es       Lennard epsilon 0.52037300E-02eV        3Bond 12.500
                            Lennard sigma/m  1.7000000    Ang       
                            Exponent m        12          None
                            Exponent n         6          None
--------------------------------------------------------------------------------
H21  c O177 c Lenn/es       Lennard epsilon 0.32179843E-02eV        3Bond 12.500
                            Lennard sigma/m 0.96225000    Ang       
                            Exponent m        12          None
                            Exponent n         6          None
--------------------------------------------------------------------------------
C916 c C917 c Lenn/es       Lennard epsilon 0.30355100E-02eV        3Bond 12.500
                            Lennard sigma/m  2.0000000    Ang       
                            Exponent m        12          None
                            Exponent n         6          None
--------------------------------------------------------------------------------
C916 c C916 c Lenn/es       Lennard epsilon 0.30355100E-02eV        3Bond 12.500
                            Lennard sigma/m  2.0000000    Ang       
                            Exponent m        12          None
                            Exponent n         6          None
--------------------------------------------------------------------------------
C916 c O175 c Lenn/es       Lennard epsilon 0.39744150E-02eV        3Bond 12.500
                            Lennard sigma/m  1.8500000    Ang       
                            Exponent m        12          None
                            Exponent n         6          None
--------------------------------------------------------------------------------
C915 c C916 c Lenn/es       Lennard epsilon 0.30355100E-02eV        3Bond 12.500
                            Lennard sigma/m  2.0000000    Ang       
                            Exponent m        12          None
                            Exponent n         6          None
--------------------------------------------------------------------------------
C902 c C916 c Lenn/es       Lennard epsilon 0.30355100E-02eV        3Bond 12.500
                            Lennard sigma/m  1.9962000    Ang       
                            Exponent m        12          None
                            Exponent n         6          None
--------------------------------------------------------------------------------
C914 c C916 c Lenn/es       Lennard epsilon 0.30355100E-02eV        3Bond 12.500
                            Lennard sigma/m  2.0000000    Ang       
                            Exponent m        12          None
                            Exponent n         6          None
--------------------------------------------------------------------------------
C913 c C916 c Lenn/es       Lennard epsilon 0.30355100E-02eV        3Bond 12.500
                            Lennard sigma/m  2.0000000    Ang       
                            Exponent m        12          None
                            Exponent n         6          None
--------------------------------------------------------------------------------
C912 c C916 c Lenn/es       Lennard epsilon 0.30355100E-02eV        3Bond 12.500
                            Lennard sigma/m  1.9962000    Ang       
                            Exponent m        12          None
                            Exponent n         6          None
--------------------------------------------------------------------------------
H915 c C916 c Lenn/es       Lennard epsilon 0.19872056E-02eV        3Bond 12.500
                            Lennard sigma/m  1.6791000    Ang       
                            Exponent m        12          None
                            Exponent n         6          None
--------------------------------------------------------------------------------
C916 c O172 c Lenn/es       Lennard epsilon 0.39744150E-02eV        3Bond 12.500
                            Lennard sigma/m  1.8500000    Ang       
                            Exponent m        12          None
                            Exponent n         6          None
--------------------------------------------------------------------------------
C916 c O170 c Lenn/es       Lennard epsilon 0.39744150E-02eV        3Bond 12.500
                            Lennard sigma/m  1.8500000    Ang       
                            Exponent m        12          None
                            Exponent n         6          None
--------------------------------------------------------------------------------
C916 c O173 c Lenn/es       Lennard epsilon 0.39744150E-02eV        3Bond 12.500
                            Lennard sigma/m  1.8500000    Ang       
                            Exponent m        12          None
                            Exponent n         6          None
--------------------------------------------------------------------------------
H21  c C916 c Lenn/es       Lennard epsilon 0.24577764E-02eV        3Bond 12.500
                            Lennard sigma/m  1.1122500    Ang       
                            Exponent m        12          None
                            Exponent n         6          None
--------------------------------------------------------------------------------
C915 c O175 c Lenn/es       Lennard epsilon 0.39744150E-02eV        3Bond 12.500
                            Lennard sigma/m  1.8500000    Ang       
                            Exponent m        12          None
                            Exponent n         6          None
--------------------------------------------------------------------------------
C915 c C915 c Lenn/es       Lennard epsilon 0.30355100E-02eV        3Bond 12.500
                            Lennard sigma/m  2.0000000    Ang       
                            Exponent m        12          None
                            Exponent n         6          None
--------------------------------------------------------------------------------
C902 c C915 c Lenn/es       Lennard epsilon 0.30355100E-02eV        3Bond 12.500
                            Lennard sigma/m  1.9962000    Ang       
                            Exponent m        12          None
                            Exponent n         6          None
--------------------------------------------------------------------------------
C914 c C915 c Lenn/es       Lennard epsilon 0.30355100E-02eV        3Bond 12.500
                            Lennard sigma/m  2.0000000    Ang       
                            Exponent m        12          None
                            Exponent n         6          None
--------------------------------------------------------------------------------
C913 c C915 c Lenn/es       Lennard epsilon 0.30355100E-02eV        3Bond 12.500
                            Lennard sigma/m  2.0000000    Ang       
                            Exponent m        12          None
                            Exponent n         6          None
--------------------------------------------------------------------------------
C912 c C915 c Lenn/es       Lennard epsilon 0.30355100E-02eV        3Bond 12.500
                            Lennard sigma/m  1.9962000    Ang       
                            Exponent m        12          None
                            Exponent n         6          None
--------------------------------------------------------------------------------
H915 c C915 c Lenn/es       Lennard epsilon 0.19872056E-02eV        3Bond 12.500
                            Lennard sigma/m  1.6791000    Ang       
                            Exponent m        12          None
                            Exponent n         6          None
--------------------------------------------------------------------------------
C915 c O172 c Lenn/es       Lennard epsilon 0.39744150E-02eV        3Bond 12.500
                            Lennard sigma/m  1.8500000    Ang       
                            Exponent m        12          None
                            Exponent n         6          None
--------------------------------------------------------------------------------
C915 c O170 c Lenn/es       Lennard epsilon 0.39744150E-02eV        3Bond 12.500
                            Lennard sigma/m  1.8500000    Ang       
                            Exponent m        12          None
                            Exponent n         6          None
--------------------------------------------------------------------------------
C915 c O173 c Lenn/es       Lennard epsilon 0.39744150E-02eV        3Bond 12.500
                            Lennard sigma/m  1.8500000    Ang       
                            Exponent m        12          None
                            Exponent n         6          None
--------------------------------------------------------------------------------
H21  c C915 c Lenn/es       Lennard epsilon 0.24577764E-02eV        3Bond 12.500
                            Lennard sigma/m  1.1122500    Ang       
                            Exponent m        12          None
                            Exponent n         6          None
--------------------------------------------------------------------------------
O175 c O175 c Lenn/es       Lennard epsilon 0.52037300E-02eV        3Bond 12.500
                            Lennard sigma/m  1.7000000    Ang       
                            Exponent m        12          None
                            Exponent n         6          None
--------------------------------------------------------------------------------
C902 c O175 c Lenn/es       Lennard epsilon 0.39744150E-02eV        3Bond 12.500
                            Lennard sigma/m  1.8462000    Ang       
                            Exponent m        12          None
                            Exponent n         6          None
--------------------------------------------------------------------------------
C914 c O175 c Lenn/es       Lennard epsilon 0.39744150E-02eV        3Bond 12.500
                            Lennard sigma/m  1.8500000    Ang       
                            Exponent m        12          None
                            Exponent n         6          None
--------------------------------------------------------------------------------
C913 c O175 c Lenn/es       Lennard epsilon 0.39744150E-02eV        3Bond 12.500
                            Lennard sigma/m  1.8500000    Ang       
                            Exponent m        12          None
                            Exponent n         6          None
--------------------------------------------------------------------------------
C912 c O175 c Lenn/es       Lennard epsilon 0.39744150E-02eV        3Bond 12.500
                            Lennard sigma/m  1.8462000    Ang       
                            Exponent m        12          None
                            Exponent n         6          None
--------------------------------------------------------------------------------
H915 c O175 c Lenn/es       Lennard epsilon 0.26018625E-02eV        3Bond 12.500
                            Lennard sigma/m  1.5291000    Ang       
                            Exponent m        12          None
                            Exponent n         6          None
--------------------------------------------------------------------------------
O172 c O175 c Lenn/es       Lennard epsilon 0.52037300E-02eV        3Bond 12.500
                            Lennard sigma/m  1.7000000    Ang       
                            Exponent m        12          None
                            Exponent n         6          None
--------------------------------------------------------------------------------
O170 c O175 c Lenn/es       Lennard epsilon 0.52037300E-02eV        3Bond 12.500
                            Lennard sigma/m  1.7000000    Ang       
                            Exponent m        12          None
                            Exponent n         6          None
--------------------------------------------------------------------------------
O173 c O175 c Lenn/es       Lennard epsilon 0.52037300E-02eV        3Bond 12.500
                            Lennard sigma/m  1.7000000    Ang       
                            Exponent m        12          None
                            Exponent n         6          None
--------------------------------------------------------------------------------
H21  c O175 c Lenn/es       Lennard epsilon 0.32179843E-02eV        3Bond 12.500
                            Lennard sigma/m 0.96225000    Ang       
                            Exponent m        12          None
                            Exponent n         6          None
--------------------------------------------------------------------------------
H22  c C902 c Lenn/es       Lennard epsilon 0.24577764E-02eV        3Bond 12.500
                            Lennard sigma/m  1.1084500    Ang       
                            Exponent m        12          None
                            Exponent n         6          None
--------------------------------------------------------------------------------
H22  c C914 c Lenn/es       Lennard epsilon 0.24577764E-02eV        3Bond 12.500
                            Lennard sigma/m  1.1122500    Ang       
                            Exponent m        12          None
                            Exponent n         6          None
--------------------------------------------------------------------------------
H22  c C913 c Lenn/es       Lennard epsilon 0.24577764E-02eV        3Bond 12.500
                            Lennard sigma/m  1.1122500    Ang       
                            Exponent m        12          None
                            Exponent n         6          None
--------------------------------------------------------------------------------
H22  c C912 c Lenn/es       Lennard epsilon 0.24577764E-02eV        3Bond 12.500
                            Lennard sigma/m  1.1084500    Ang       
                            Exponent m        12          None
                            Exponent n         6          None
--------------------------------------------------------------------------------
H22  c H915 c Lenn/es       Lennard epsilon 0.16089906E-02eV        3Bond 12.500
                            Lennard sigma/m 0.79135000    Ang       
                            Exponent m        12          None
                            Exponent n         6          None
--------------------------------------------------------------------------------
H22  c O172 c Lenn/es       Lennard epsilon 0.32179843E-02eV        3Bond 12.500
                            Lennard sigma/m 0.96225000    Ang       
                            Exponent m        12          None
                            Exponent n         6          None
--------------------------------------------------------------------------------
H22  c O170 c Lenn/es       Lennard epsilon 0.32179843E-02eV        3Bond 12.500
                            Lennard sigma/m 0.96225000    Ang       
                            Exponent m        12          None
                            Exponent n         6          None
--------------------------------------------------------------------------------
H22  c O173 c Lenn/es       Lennard epsilon 0.32179843E-02eV        3Bond 12.500
                            Lennard sigma/m 0.96225000    Ang       
                            Exponent m        12          None
                            Exponent n         6          None
--------------------------------------------------------------------------------
H21  c H22  c Lenn/es       Lennard epsilon 0.19900000E-02eV        3Bond 12.500
                            Lennard sigma/m 0.22450000    Ang       
                            Exponent m        12          None
                            Exponent n         6          None
--------------------------------------------------------------------------------
H22  c H22  c Lenn/es       Lennard epsilon 0.19900000E-02eV        3Bond 12.500
                            Lennard sigma/m 0.22450000    Ang       
                            Exponent m        12          None
                            Exponent n         6          None
--------------------------------------------------------------------------------
C902 c C914 c Lenn/es       Lennard epsilon 0.30355100E-02eV        3Bond 12.500
                            Lennard sigma/m  1.9962000    Ang       
                            Exponent m        12          None
                            Exponent n         6          None
--------------------------------------------------------------------------------
C914 c C914 c Lenn/es       Lennard epsilon 0.30355100E-02eV        3Bond 12.500
                            Lennard sigma/m  2.0000000    Ang       
                            Exponent m        12          None
                            Exponent n         6          None
--------------------------------------------------------------------------------
C913 c C914 c Lenn/es       Lennard epsilon 0.30355100E-02eV        3Bond 12.500
                            Lennard sigma/m  2.0000000    Ang       
                            Exponent m        12          None
                            Exponent n         6          None
--------------------------------------------------------------------------------
C912 c C914 c Lenn/es       Lennard epsilon 0.30355100E-02eV        3Bond 12.500
                            Lennard sigma/m  1.9962000    Ang       
                            Exponent m        12          None
                            Exponent n         6          None
--------------------------------------------------------------------------------
H915 c C914 c Lenn/es       Lennard epsilon 0.19872056E-02eV        3Bond 12.500
                            Lennard sigma/m  1.6791000    Ang       
                            Exponent m        12          None
                            Exponent n         6          None
--------------------------------------------------------------------------------
C914 c O172 c Lenn/es       Lennard epsilon 0.39744150E-02eV        3Bond 12.500
                            Lennard sigma/m  1.8500000    Ang       
                            Exponent m        12          None
                            Exponent n         6          None
--------------------------------------------------------------------------------
C914 c O170 c Lenn/es       Lennard epsilon 0.39744150E-02eV        3Bond 12.500
                            Lennard sigma/m  1.8500000    Ang       
                            Exponent m        12          None
                            Exponent n         6          None
--------------------------------------------------------------------------------
C902 c O173 c Lenn/es       Lennard epsilon 0.39744150E-02eV        3Bond 12.500
                            Lennard sigma/m  1.8462000    Ang       
                            Exponent m        12          None
                            Exponent n         6          None
--------------------------------------------------------------------------------
C914 c O173 c Lenn/es       Lennard epsilon 0.39744150E-02eV        3Bond 12.500
                            Lennard sigma/m  1.8500000    Ang       
                            Exponent m        12          None
                            Exponent n         6          None
--------------------------------------------------------------------------------
C913 c O173 c Lenn/es       Lennard epsilon 0.39744150E-02eV        3Bond 12.500
                            Lennard sigma/m  1.8500000    Ang       
                            Exponent m        12          None
                            Exponent n         6          None
--------------------------------------------------------------------------------
C912 c O173 c Lenn/es       Lennard epsilon 0.39744150E-02eV        3Bond 12.500
                            Lennard sigma/m  1.8462000    Ang       
                            Exponent m        12          None
                            Exponent n         6          None
--------------------------------------------------------------------------------
H915 c O173 c Lenn/es       Lennard epsilon 0.26018625E-02eV        3Bond 12.500
                            Lennard sigma/m  1.5291000    Ang       
                            Exponent m        12          None
                            Exponent n         6          None
--------------------------------------------------------------------------------
H21  c O173 c Lenn/es       Lennard epsilon 0.32179843E-02eV        3Bond 12.500
                            Lennard sigma/m 0.96225000    Ang       
                            Exponent m        12          None
                            Exponent n         6          None
--------------------------------------------------------------------------------
O172 c O173 c Lenn/es       Lennard epsilon 0.52037300E-02eV        3Bond 12.500
                            Lennard sigma/m  1.7000000    Ang       
                            Exponent m        12          None
                            Exponent n         6          None
--------------------------------------------------------------------------------
O170 c O173 c Lenn/es       Lennard epsilon 0.52037300E-02eV        3Bond 12.500
                            Lennard sigma/m  1.7000000    Ang       
                            Exponent m        12          None
                            Exponent n         6          None
--------------------------------------------------------------------------------
O173 c O173 c Lenn/es       Lennard epsilon 0.52037300E-02eV        3Bond 12.500
                            Lennard sigma/m  1.7000000    Ang       
                            Exponent m        12          None
                            Exponent n         6          None
--------------------------------------------------------------------------------
H21  c O3   c Lenn/es       Lennard epsilon  0.0000000    eV        3Bond 12.500
                            Lennard sigma/m  0.0000000    Ang       
                            Exponent m        12          None
                            Exponent n         6          None
--------------------------------------------------------------------------------
H21  c O2   c Lenn/es       Lennard epsilon  0.0000000    eV        3Bond 12.500
                            Lennard sigma/m  0.0000000    Ang       
                            Exponent m        12          None
                            Exponent n         6          None
--------------------------------------------------------------------------------
H21  c H21  c Lenn/es       Lennard epsilon 0.19900000E-02eV        3Bond 12.500
                            Lennard sigma/m 0.22450000    Ang       
                            Exponent m        12          None
                            Exponent n         6          None
--------------------------------------------------------------------------------
H21  c O170 c Lenn/es       Lennard epsilon 0.32179843E-02eV        3Bond 12.500
                            Lennard sigma/m 0.96225000    Ang       
                            Exponent m        12          None
                            Exponent n         6          None
--------------------------------------------------------------------------------
H21  c C913 c Lenn/es       Lennard epsilon 0.24577764E-02eV        3Bond 12.500
                            Lennard sigma/m  1.1122500    Ang       
                            Exponent m        12          None
                            Exponent n         6          None
--------------------------------------------------------------------------------
H21  c C902 c Lenn/es       Lennard epsilon 0.24577764E-02eV        3Bond 12.500
                            Lennard sigma/m  1.1084500    Ang       
                            Exponent m        12          None
                            Exponent n         6          None
--------------------------------------------------------------------------------
H21  c C912 c Lenn/es       Lennard epsilon 0.24577764E-02eV        3Bond 12.500
                            Lennard sigma/m  1.1084500    Ang       
                            Exponent m        12          None
                            Exponent n         6          None
--------------------------------------------------------------------------------
H21  c H915 c Lenn/es       Lennard epsilon 0.16089906E-02eV        3Bond 12.500
                            Lennard sigma/m 0.79135000    Ang       
                            Exponent m        12          None
                            Exponent n         6          None
--------------------------------------------------------------------------------
H21  c O172 c Lenn/es       Lennard epsilon 0.32179843E-02eV        3Bond 12.500
                            Lennard sigma/m 0.96225000    Ang       
                            Exponent m        12          None
                            Exponent n         6          None
--------------------------------------------------------------------------------
H915 c O172 c Lenn/es       Lennard epsilon 0.26018625E-02eV        3Bond 12.500
                            Lennard sigma/m  1.5291000    Ang       
                            Exponent m        12          None
                            Exponent n         6          None
--------------------------------------------------------------------------------
C902 c O172 c Lenn/es       Lennard epsilon 0.39744150E-02eV        3Bond 12.500
                            Lennard sigma/m  1.8462000    Ang       
                            Exponent m        12          None
                            Exponent n         6          None
--------------------------------------------------------------------------------
C912 c O172 c Lenn/es       Lennard epsilon 0.39744150E-02eV        3Bond 12.500
                            Lennard sigma/m  1.8462000    Ang       
                            Exponent m        12          None
                            Exponent n         6          None
--------------------------------------------------------------------------------
C913 c O172 c Lenn/es       Lennard epsilon 0.39744150E-02eV        3Bond 12.500
                            Lennard sigma/m  1.8500000    Ang       
                            Exponent m        12          None
                            Exponent n         6          None
--------------------------------------------------------------------------------
C912 c O170 c Lenn/es       Lennard epsilon 0.39744150E-02eV        3Bond 12.500
                            Lennard sigma/m  1.8462000    Ang       
                            Exponent m        12          None
                            Exponent n         6          None
--------------------------------------------------------------------------------
C912 c C912 c Lenn/es       Lennard epsilon 0.30355100E-02eV        3Bond 12.500
                            Lennard sigma/m  1.9924000    Ang       
                            Exponent m        12          None
                            Exponent n         6          None
--------------------------------------------------------------------------------
C902 c O170 c Lenn/es       Lennard epsilon 0.39744150E-02eV        3Bond 12.500
                            Lennard sigma/m  1.8462000    Ang       
                            Exponent m        12          None
                            Exponent n         6          None
--------------------------------------------------------------------------------
C902 c C912 c Lenn/es       Lennard epsilon 0.30355100E-02eV        3Bond 12.500
                            Lennard sigma/m  1.9924000    Ang       
                            Exponent m        12          None
                            Exponent n         6          None
--------------------------------------------------------------------------------
C902 c C902 c Lenn/es       Lennard epsilon 0.30355100E-02eV        3Bond 12.500
                            Lennard sigma/m  1.9924000    Ang       
                            Exponent m        12          None
                            Exponent n         6          None
--------------------------------------------------------------------------------
H915 c O170 c Lenn/es       Lennard epsilon 0.26018625E-02eV        3Bond 12.500
                            Lennard sigma/m  1.5291000    Ang       
                            Exponent m        12          None
                            Exponent n         6          None
[...]
C902  core                  Three-body angl  116.00000    degrees   0.000 1 Bond
O177  core                  Three-body k4    0.0000000    eV*rad^-4 0.000 1 Bond
                            Three-body k3    0.0000000    eV*rad^-3 
--------------------------------------------------------------------------------
C914  core    Harmonic      Three-body cnst  3.4692000    eV*rad^-2 0.000 1 Bond
C902  core                  Three-body angl  116.00000    degrees   0.000 1 Bond
O172  core                  Three-body k4    0.0000000    eV*rad^-4 0.000 1 Bond
                            Three-body k3    0.0000000    eV*rad^-3 
--------------------------------------------------------------------------------
C914  core    Harmonic      Three-body cnst  3.4692000    eV*rad^-2 0.000 1 Bond
C902  core                  Three-body angl  116.00000    degrees   0.000 1 Bond
O173  core                  Three-body k4    0.0000000    eV*rad^-4 0.000 1 Bond
                            Three-body k3    0.0000000    eV*rad^-3 
--------------------------------------------------------------------------------

  Intramolecular Four-body potentials :

--------------------------------------------------------------------------------
  Atoms       Potential      Parameter       Value         Units   Cutoffs(Ang)
  1 - 4                                                             Min /  Max 
--------------------------------------------------------------------------------
C902  core    Standard      Torsional const 0.13443000    eV         Bonded
C912  core Phase = +  2                                                       
C912  core                                                              
C902  core
--------------------------------------------------------------------------------
C912  core    Standard      Torsional const 0.13443000    eV         Bonded
C902  core Phase = +  2                                                       
C912  core                                                              
C912  core
--------------------------------------------------------------------------------
C902  core    Standard      Torsional const 0.18213000    eV         Bonded
C912  core Phase = +  2                                                       
C912  core                                                              
H915  core
--------------------------------------------------------------------------------
C912  core    Standard      Torsional const 0.18213000    eV         Bonded
C902  core Phase = +  2                                                       
C912  core                                                              
H915  core
--------------------------------------------------------------------------------
O170  core    Standard      Torsional const  1.0602000    eV         Bonded
C913  core Phase = +  2                                                       
C902  core                                                              
C912  core
--------------------------------------------------------------------------------
O175  core    Standard      Torsional const  1.0602000    eV         Bonded
C915  core Phase = +  2                                                       
C902  core                                                              
C912  core
--------------------------------------------------------------------------------
O176  core    Standard      Torsional const  1.0602000    eV         Bonded
C916  core Phase = +  2                                                       
C902  core                                                              
C912  core
--------------------------------------------------------------------------------
O177  core    Standard      Torsional const  1.0602000    eV         Bonded
C917  core Phase = +  2                                                       
C902  core                                                              
C912  core
--------------------------------------------------------------------------------
O172  core    Standard      Torsional const  1.0602000    eV         Bonded
C914  core Phase = +  2                                                       
C902  core                                                              
C912  core
--------------------------------------------------------------------------------
O173  core    Standard      Torsional const  1.0602000    eV         Bonded
C914  core Phase = +  2                                                       
C902  core                                                              
C912  core
--------------------------------------------------------------------------------
C913  core    Standard      Torsional const 0.13443000    eV         Bonded
C902  core Phase = +  2                                                       
C912  core                                                              
C912  core
--------------------------------------------------------------------------------
C915  core    Standard      Torsional const 0.13443000    eV         Bonded
C902  core Phase = +  2                                                       
C912  core                                                              
C912  core
--------------------------------------------------------------------------------
C916  core    Standard      Torsional const 0.13443000    eV         Bonded
C902  core Phase = +  2                                                       
C912  core                                                              
C912  core
--------------------------------------------------------------------------------
C917  core    Standard      Torsional const 0.13443000    eV         Bonded
C902  core Phase = +  2                                                       
C912  core                                                              
C912  core
--------------------------------------------------------------------------------
C913  core    Standard      Torsional const 0.10407000    eV         Bonded
C902  core Phase = +  2                                                       
C912  core                                                              
H915  core
--------------------------------------------------------------------------------
C915  core    Standard      Torsional const 0.10407000    eV         Bonded
C902  core Phase = +  2                                                       
C912  core                                                              
H915  core
--------------------------------------------------------------------------------
C916  core    Standard      Torsional const 0.10407000    eV         Bonded
C902  core Phase = +  2                                                       
C912  core                                                              
H915  core
--------------------------------------------------------------------------------
C917  core    Standard      Torsional const 0.10407000    eV         Bonded
C902  core Phase = +  2                                                       
C912  core                                                              
H915  core
--------------------------------------------------------------------------------
H915  core    Standard      Torsional const 0.10407000    eV         Bonded
C912  core Phase = +  2                                                       
C912  core                                                              
H915  core
--------------------------------------------------------------------------------
C902  core    Standard      Torsional const 0.88896000E-01eV         Bonded
C914  core Phase = +  2                                                       
O172  core                                                              
H21   core
--------------------------------------------------------------------------------
O173  core    Standard      Torsional const 0.88896000E-01eV         Bonded
C914  core Phase = +  2                                                       
O172  core                                                              
H21   core
--------------------------------------------------------------------------------

********************************************************************************
*  Output for configuration   1                                                *
********************************************************************************



  Electrostatic potential at atomic positions :

-------------------------------------------------------------------------------
 Site  Atomic      Potential                Derivatives (V/Angs)
 No.   Label          (V)                 x           y           z
-------------------------------------------------------------------------------
     1 O176  c     -0.612881          -1.459137   -6.100870    3.527367
     2 O170  c      8.880922           4.735990   -0.550371    0.779037
     3 O176  c     -0.777167          -1.423726    3.799122    5.354081
     4 O170  c      8.623044          -4.605446    0.238776    1.647769
     5 O176  c     -0.557575          -4.778070    0.927691    5.019252
     6 O170  c      8.531303          -0.204880   -4.541143    0.827037
     7 O176  c     -0.748598           5.356098    0.500401    4.632562
     8 O170  c      8.389499           0.501104    4.854717    1.360781
     9 O171  c     20.858140          -0.135876    0.023075    0.504049
    10 O171  c     20.675682          -0.089592    0.107929    0.407224
    11 O170  c     10.155859           1.899655    2.630877   -3.073398
    12 O170  c      9.753610           3.266564    2.387916    3.082531
    13 O170  c      9.344521          -2.652476   -2.401367    3.851174
    14 O170  c     10.168528          -2.505190   -2.794378   -2.947920
    15 O170  c      9.403024          -2.536690    2.332290    3.965572
    16 O170  c      9.657180           3.257904   -2.439590    3.079292
    17 O170  c     10.222645           1.820958   -2.613000   -3.073155
    18 O170  c     10.135787          -2.540792    2.850098   -2.810944
    19 O170  c     11.374976          -0.137372   -4.715326   -0.181247
    20 O173  c      7.901513           7.594749    0.045008   -3.306815
    21 O170  c     11.370124           0.009629    4.693143   -0.209907
    22 O172  c      9.945652          -7.138857    0.059253   -0.780520
    23 H21   c     -7.168824          -2.185707   -0.162241    7.890758
    24 O170  c     11.136975          -4.709780    0.033969   -0.324990
    25 O172  c     10.105795          -0.118912   -7.176149   -0.503116
    26 H21   c     -7.011528           0.423661   -1.891365    7.956631
    27 O170  c     11.101097           4.810097   -0.073412   -0.021377
    28 O173  c      8.088912          -0.154645    7.449892   -3.599815
    29 O170  c     10.000221           2.721421   -2.081479   -2.926263
    30 O170  c      9.374737           2.693641   -3.189171    3.103936
    31 O170  c      9.313389          -1.790568    2.190022    4.487016
    32 O170  c     10.003608          -3.171519    2.589093   -2.336383
    33 O170  c      9.413801           2.615888    3.032494    3.179754
    34 O170  c      9.256972          -1.784758   -2.260879    4.554817
    35 O170  c     10.054258          -3.259342   -2.569305   -2.289583
    36 O170  c      9.968048           2.702785    2.145838   -2.862116
    37 C912  c     -8.123384           0.085072    0.704084    0.157989
    38 C912  c     -6.728528          -0.534828    0.230538    1.803538
    39 C912  c     -7.762418           0.103958   -0.981585   -0.261887
    40 C912  c     -6.813006           1.013622    0.163688    1.682289
    41 C912  c     -8.083685           0.744248   -0.000915   -0.031231
    42 C912  c     -6.912588          -0.524635    0.573779    1.744171
    43 C912  c     -7.783427          -0.984872    0.065232   -0.000348
    44 C912  c     -6.757615          -0.548788   -0.984056    1.523757
    45 C916  c    -29.958634          -2.770747   -2.243440    8.732390
    46 C913  c    -23.991682          -0.768483   -0.609327   -6.275907
    47 C916  c    -30.165419           0.464066    1.331714    9.474229
    48 C913  c    -24.122475           2.510777    0.208144   -5.967374
    49 C902  c     -8.640876           0.846459    0.034521   -2.199944
    50 C902  c     -6.142480           0.686765    0.419931    4.314427
    51 C902  c     -8.630053          -0.498522   -0.266028   -2.326798
    52 C902  c     -6.261861          -1.446010   -0.339351    3.971637
    53 C912  c     -3.539606          -1.017593    0.420228    1.037747
    54 C912  c     -4.057538           0.267091   -1.177187    0.063663
    55 C912  c     -4.228022          -0.285215    1.182067   -0.058240
    56 C912  c     -3.392009           1.122010   -0.368997    0.983690
    57 C912  c     -4.165747          -0.297977   -1.175645   -0.090989
    58 C912  c     -4.120143           0.260259    1.194827    0.079312
    59 C912  c     -3.500923          -1.014597   -0.429347    1.023599
    60 C912  c     -3.446696           1.124295    0.365054    0.979481
    61 C912  c     -1.189970          -0.045061    0.680510   -0.548594
    62 C912  c     -0.726170          -0.570995   -0.030131    1.635772
    63 C912  c     -1.243637          -0.060041   -0.645812   -0.577731
    64 C912  c     -0.565682           0.564479   -0.038414    1.769782
    65 C912  c     -1.375621           0.713036    0.008168   -0.513898
    66 C912  c     -0.391537           0.087728    0.619527    1.738043
    67 C912  c     -1.456132          -0.614673    0.016552   -0.592306
    68 C912  c     -0.525774           0.071304   -0.517633    1.648826
    69 C912  c     -3.515193           0.320471    1.160284    0.893512
    70 C912  c     -4.161596          -1.114937   -0.369591   -0.073381
    71 C912  c     -4.205200           1.053947    0.430449   -0.222739
    72 C912  c     -3.486618          -0.266499   -1.216013    0.831168
    73 C912  c     -4.086950          -1.116534    0.374545   -0.120176
    74 C912  c     -4.269481           1.054274   -0.429585   -0.200737
    75 C912  c     -3.452556          -0.273803    1.195124    0.809122
    76 C912  c     -3.547566           0.315490   -1.180396    0.895255
    77 C913  c    -22.415671           4.702136   -5.361028   -0.253307
    78 C913  c    -22.237216          -4.598141    5.422035   -0.037536
    79 C913  c    -22.357715           4.723921    5.333476   -0.305736
    80 C913  c    -22.298646          -4.634960   -5.387372    0.057049
    81 C913  c    -20.719818           0.417440    0.019880    7.334977
    82 C914  c    -15.647490           0.741380    0.098240   -4.140070
    83 C913  c    -20.961066          -0.237775   -0.136772    7.372515
    84 C914  c    -15.471080          -0.254514    0.568751   -4.164107
    85 C913  c    -22.472850          -4.583459   -5.465496    0.797653
    86 C913  c    -22.467564           4.703506    5.278723    1.123067
    87 C913  c    -22.428791           4.646898   -5.341853    1.095268
    88 C913  c    -22.507051          -4.581812    5.437831    0.899794
    89 C902  c     -3.759378          -2.246158    2.685750    0.682902
    90 C902  c     -3.572444           2.360926   -2.653306    0.702616
    91 C902  c     -3.706847          -2.255762   -2.684689    0.657303
    92 C902  c     -3.634430           2.356864    2.662169    0.672821
    93 C902  c     -1.335561          -0.211729    0.008362   -3.210992
    94 C902  c      0.235491          -0.065374   -0.105648    4.742317
    95 C902  c     -1.544215           0.141518    0.061157   -3.200648
    96 C902  c      0.419120           0.254765    0.105426    4.729537
    97 C902  c     -3.761956           2.292829    2.677007    0.212526
    98 C902  c     -3.717953          -2.338305   -2.681375    0.170261
    99 C902  c     -3.666366          -2.348933    2.665063    0.119846
   100 C902  c     -3.806984           2.284662   -2.692691    0.203636
   101 H915  c    -11.649089          -0.456812    0.687459    1.655208
   102 H915  c     -9.227435          -0.664424    0.068085    0.363367
   103 H915  c    -10.830464          -0.291481   -0.939108    0.823845
   104 H915  c     -9.329806           0.629731    0.020788    0.318160
   105 H915  c    -11.601274           1.196286    0.198101    1.506870
   106 H915  c     -9.466610           0.000834    0.572855    0.400791
   107 H915  c    -10.902029          -0.728961    0.221514    1.177567
   108 H915  c     -9.259200          -0.052855   -0.627408    0.309616
   109 H915  c     -6.182831          -0.088427   -0.456641    0.789026
   110 H915  c     -7.238887          -0.480712   -0.092848    0.088029
   111 H915  c     -7.385185           0.375931    0.128459    0.038903
   112 H915  c     -6.025913           0.171520    0.427040    0.732271
   113 H915  c     -7.317644           0.353751   -0.120187    0.019529
   114 H915  c     -7.290687          -0.481357    0.121263    0.119590
   115 H915  c     -6.154038          -0.082054    0.460450    0.784652
   116 H915  c     -6.083414           0.170055   -0.437018    0.743387
   117 H915  c     -4.438117           0.030795    0.506678    0.710011
   118 H915  c     -3.613625          -0.244465   -0.000558    0.191598
   119 H915  c     -4.495093           0.018219   -0.485228    0.675763
   120 H915  c     -3.291367           0.265643   -0.007507    0.415149
   121 H915  c     -4.617867           0.490082   -0.015528    0.739943
   122 H915  c     -3.133023           0.005333    0.268427    0.397838
   123 H915  c     -4.722090          -0.508119   -0.008789    0.673580
   124 H915  c     -3.407433          -0.011143   -0.245255    0.198158
   125 H915  c     -6.166177          -0.389756    0.090328    0.804912
   126 H915  c     -7.360119          -0.163177    0.490546    0.153007
   127 H915  c     -7.398435           0.128619   -0.392127    0.031765
   128 H915  c     -6.153601           0.415338   -0.149019    0.782058
   129 H915  c     -7.264900          -0.169309   -0.460786    0.124728
   130 H915  c     -7.479938           0.124764    0.405477    0.056876
   131 H915  c     -6.149026           0.430700    0.119727    0.784052
   132 H915  c     -6.181281          -0.380589   -0.114655    0.806204
   133 Zn172 c    -25.095448          -0.036659   -0.388982    0.493355
   134 Zn172 c    -26.165843          -0.448191    0.012875    0.846526
   135 Zn172 c    -25.921639           0.529492    0.093500    0.518440
   136 Zn172 c    -25.061600          -0.070666    0.416431    0.494422
   137 Zn172 c    -25.238207           0.334836    0.029482    0.310162
   138 Zn172 c    -26.278148          -0.319860    0.459564    0.241027
   139 Zn172 c    -25.262936          -0.596870    0.003862    0.336077
   140 Zn172 c    -26.146588          -0.239396   -0.311786    0.176424
-------------------------------------------------------------------------------

  Total time to end of lattice properties =       0.3787 s


  Peak dynamic memory used =       1.25 MB 


  Timing analysis for GULP :

--------------------------------------------------------------------------------
  Task / Subroutine                                          Time (Seconds)
--------------------------------------------------------------------------------
  Calculation of reciprocal space energy and derivatives          0.3590
  Calculation of molecules and connectivity                       0.0045
  Symmetry generation of equivalent positions                     0.0002
--------------------------------------------------------------------------------
  Total CPU time                                                  0.3788
--------------------------------------------------------------------------------


  Dump file written as fit1.res                                                

  XYZ File written as gulp.xyz                                



  Job Finished at 12:06.58 27th May        2016                               

